   * xtb version 6.5.1 (579679a) compiled by 'ehlert@majestix' on 2022-07-11
          program call               : /lustre/hpc/kemi/ree/PhD/git/ReactivityQM/dep/xtb-6.5.1/bin/xtb --gfn 1 /lustre/hpc/kemi/ree/PhD/git/ReactivityQM/calculations/R02deprot/reac01prodE12/conf11/R02deprot_reac01prodE12_conf11_gfn1.xyz --opt --vfukui --chrg -2 --uhf 0 --alpb DMSO

   ID    Z sym.   atoms
    1    6 C      1, 3, 5, 6, 8, 9, 12-15, 17, 19, 22, 23
    2    8 O      2, 4, 7, 10, 18, 24
    3    7 N      11, 16, 20, 21, 25
    4    1 H      26-42

      * Solvation model:               ALPB
        Solvent                        DMSO
        Solvent mass                       7.8130E+01 g/mol
          :  Hamiltonian                  GFN1-xTB          :
 * total energy  :   -83.5616221 Eh     change       -0.4973799E-11 Eh
 * total energy  :   -83.5749332 Eh     change       -0.1331108E-01 Eh
 * total energy  :   -83.5810580 Eh     change       -0.6124819E-02 Eh
 * total energy  :   -83.5821861 Eh     change       -0.1128061E-02 Eh
 * total energy  :   -83.5827215 Eh     change       -0.5354564E-03 Eh
 * total energy  :   -83.5829472 Eh     change       -0.2257085E-03 Eh
 * total energy  :   -83.5831223 Eh     change       -0.1751019E-03 Eh
 * total energy  :   -83.5832654 Eh     change       -0.1430897E-03 Eh
 * total energy  :   -83.5833901 Eh     change       -0.1246667E-03 Eh
 * total energy  :   -83.5835253 Eh     change       -0.1352354E-03 Eh
 * total energy  :   -83.5859832 Eh     change       -0.8562995E-05 Eh
 * total energy  :   -83.5859920 Eh     change       -0.8802830E-05 Eh
 * total energy  :   -83.5860009 Eh     change       -0.8890025E-05 Eh
 * total energy  :   -83.5860096 Eh     change       -0.8712526E-05 Eh
 * total energy  :   -83.5860179 Eh     change       -0.8293852E-05 Eh
 * total energy  :   -83.5860256 Eh     change       -0.7699887E-05 Eh
 * total energy  :   -83.5860327 Eh     change       -0.7060838E-05 Eh
 * total energy  :   -83.5860392 Eh     change       -0.6496922E-05 Eh
 * total energy  :   -83.5860435 Eh     change       -0.4364390E-05 Eh
   *** GEOMETRY OPTIMIZATION CONVERGED AFTER 94 ITERATIONS ***

 final structure:
================
42
 xtb: 6.5.1 (579679a)
C           -6.02778952413999       -2.66774780817914       -0.10573310133052
O           -5.04130376870120       -1.69246577637244       -0.41495814087192
C           -3.94724637823764       -1.67674449710305        0.42415510981508
O           -3.90709000141169       -2.46205474261014        1.36371598072709
C           -2.92345261214215       -0.70177966053971        0.07891927594529
C           -2.94847108915905        0.17330677350691       -0.97393635339750
O           -3.95177446119524        0.26261620408331       -1.89589621286430
C           -1.84746137805119        1.27903782434444       -1.14845598131643
C           -1.46443117424984        1.30852619254852       -2.68273858495759
O           -2.25661114996811        2.44390748990500       -0.68947807551964
N           -0.59688373184444        0.76616829355844       -0.46780257266123
C           -0.73916582526690       -0.08030476883559        0.50583397695097
C            0.53075806969759       -0.38896970462933        1.33041918095011
C            0.34965856662550        0.13137802730949        2.76265531898829
C            0.78776699349484       -1.90094852045840        1.33808522490976
N            1.62796574813534        0.31273855770198        0.67083346393409
C            2.91851226981113        0.24036106673752        0.98477186526242
O            3.40128242293767       -0.37257203910878        1.93786241707518
C            3.75786909393670        1.00799101202140        0.02224769581229
N            3.33220467977410        1.71573862196475       -0.98431621714265
N            4.43867139813603        2.22127382856531       -1.60839327564587
C            5.46457678348297        1.78980575243145       -0.94720007862540
C            6.89413224568793        2.04852191577009       -1.23211761172119
O            5.10906512826240        1.02061186390113        0.09572226272804
N           -1.80133526775694       -0.77677382264988        0.91492956524006
H           -5.59486129225349       -3.67322419491251       -0.11828402496291
H           -6.46035029134670       -2.48260059736363        0.88269846825868
H           -6.80428693834161       -2.59531694353341       -0.86512553233767
H           -4.66742659292719       -0.36934974368288       -1.73367359535295
H           -2.31501984162256        1.66172455263689       -3.26520408980978
H           -0.63283071349984        2.00075170329398       -2.81618339388751
H           -1.16802385473655        0.31840857471199       -3.03041013809772
H            1.20667001258932       -0.12807235699344        3.38421559543208
H            0.23347383733475        1.21576318717918        2.75853091603496
H           -0.54822415169387       -0.31777792785039        3.18847691802726
H            1.61856386955444       -2.16041881376968        1.99351473267266
H           -0.11496186810404       -2.40316984631300        1.68858790774397
H            1.01136313713350       -2.24852366286055        0.32919571923382
H            1.31298699224100        0.85058747874394       -0.15017191883803
H            6.98163701713565        2.69680799748207       -2.10013171282019
H            7.41219785436665        1.10995663462890       -1.42727027240555
H            7.36964778631197        2.52283187475070       -0.37442271117619

          :  Hamiltonian                  GFN1-xTB          :
         :: total energy             -83.586043538324 Eh    ::
         :: gradient norm              0.000187242440 Eh/a0 ::
         :: HOMO-LUMO gap              0.181376305228 eV    ::
         :: SCC energy               -84.315374750162 Eh    ::
         :: -> Gsolv                  -0.296459702796 Eh    ::
         :: repulsion energy           0.754748125835 Eh    ::

    * Orbital Energies and Occupations

         #    Occupation            Energy/Eh            Energy/eV
      -------------------------------------------------------------
         1        2.0000           -0.8419504             -22.9106
       ...           ...                  ...                  ...
        56        2.0000           -0.4374500             -11.9036
        57        2.0000           -0.4333116             -11.7910
        58        2.0000           -0.4243895             -11.5482
        59        2.0000           -0.4149608             -11.2917
        60        2.0000           -0.4110144             -11.1843
        61        2.0000           -0.4065291             -11.0622
        62        2.0000           -0.4036713             -10.9845
        63        2.0000           -0.3749726             -10.2035
        64        2.0000           -0.3614477              -9.8355
        65        2.0000           -0.3306157              -8.9965
        66        2.0000           -0.3059516              -8.3254
        67        2.0000           -0.3004296              -8.1751
        68        1.9418           -0.2881752              -7.8416 (HOMO)
        69        0.0582           -0.2815098              -7.6603 (LUMO)
        70                         -0.2389337              -6.5017
        71                         -0.2326858              -6.3317
        72                         -0.1686334              -4.5887
        73                         -0.1572870              -4.2800
        74                         -0.1359117              -3.6983
        75                         -0.1158617              -3.1528
        76                         -0.0973487              -2.6490
        77                         -0.0908734              -2.4728
        78                         -0.0880068              -2.3948
        79                         -0.0683035              -1.8586
       ...                                ...                  ...
       134                          0.7296307              19.8543
      -------------------------------------------------------------
                  HL-Gap            0.0066655 Eh            0.1814 eV

Wiberg/Mayer (AO) data.
largest (>0.10) Wiberg bond orders for each atom

     #   Z sym  total        # sym  WBO       # sym  WBO       # sym  WBO
 ---------------------------------------------------------------------------
     1   6 C    3.899 --    28 H    0.987    27 H    0.981    26 H    0.981
                             2 O    0.923
     2   8 O    2.144 --     3 C    0.996     1 C    0.923     4 O    0.101
     3   6 C    3.824 --     4 O    1.588     5 C    1.106     2 O    0.996
     4   8 O    1.861 --     3 C    1.588     2 O    0.101
     5   6 C    3.950 --     6 C    1.517    25 N    1.107     3 C    1.106
     6   6 C    3.833 --     5 C    1.517     7 O    1.040     8 C    0.892
     7   8 O    2.032 --     6 C    1.040    29 H    0.834
     8   6 C    3.940 --    10 O    1.178     9 C    0.924     6 C    0.892
                            11 N    0.878
     9   6 C    3.980 --    32 H    0.991    31 H    0.989    30 H    0.989
                             8 C    0.924
    10   8 O    1.454 --     8 C    1.178
    11   7 N    2.945 --    12 C    1.557     8 C    0.878    25 N    0.176
    12   6 C    3.962 --    11 N    1.557    25 N    1.347    13 C    0.939
    13   6 C    3.910 --    15 C    0.989    14 C    0.986    12 C    0.939
                            16 N    0.916
    14   6 C    3.996 --    34 H    0.987    13 C    0.986    33 H    0.986
                            35 H    0.985
    15   6 C    3.995 --    13 C    0.989    38 H    0.987    36 H    0.985
                            37 H    0.983
    16   7 N    3.393 --    17 C    1.320    13 C    0.916    39 H    0.858
                            18 O    0.188
    17   6 C    3.913 --    18 O    1.523    16 N    1.320    19 C    0.988
    18   8 O    1.835 --    17 C    1.523    16 N    0.188
    19   6 C    3.833 --    20 N    1.597    24 O    1.046    17 C    0.988
    20   7 N    2.970 --    19 C    1.597    21 N    1.184
    21   7 N    2.980 --    22 C    1.623    20 N    1.184
    22   6 C    3.869 --    21 N    1.623    24 O    1.075    23 C    1.028
    23   6 C    3.990 --    22 C    1.028    40 H    0.984    42 H    0.967
                            41 H    0.966
    24   8 O    2.299 --    22 C    1.075    19 C    1.046
    25   7 N    2.840 --    12 C    1.347     5 C    1.107    11 N    0.176
    26   1 H    1.016 --     1 C    0.981
    27   1 H    1.016 --     1 C    0.981
    28   1 H    1.015 --     1 C    0.987
    29   1 H    0.892 --     7 O    0.834
    30   1 H    1.024 --     9 C    0.989
    31   1 H    1.026 --     9 C    0.989
    32   1 H    1.020 --     9 C    0.991
    33   1 H    1.013 --    14 C    0.986
    34   1 H    1.009 --    14 C    0.987
    35   1 H    1.022 --    14 C    0.985
    36   1 H    1.015 --    15 C    0.985
    37   1 H    1.031 --    15 C    0.983
    38   1 H    1.009 --    15 C    0.987
    39   1 H    1.003 --    16 N    0.858
    40   1 H    1.001 --    23 C    0.984
    41   1 H    0.999 --    23 C    0.966
    42   1 H    0.999 --    23 C    0.967
 ---------------------------------------------------------------------------

           -------------------------------------------------
          | TOTAL ENERGY              -83.586043538324 Eh   |
          | GRADIENT NORM               0.000187242440 Eh/α |
          | HOMO-LUMO GAP               0.181376305228 eV   |
           -------------------------------------------------

 * finished run on 2023/06/20 at 17:57:56.151
