   * xtb version 6.5.1 (579679a) compiled by 'ehlert@majestix' on 2022-07-11
          program call               : /lustre/hpc/kemi/ree/PhD/git/ReactivityQM/dep/xtb-6.5.1/bin/xtb --gfn 1 /lustre/hpc/kemi/ree/PhD/git/ReactivityQM/calculations/R02/reac02prodN01/conf02/R02_reac02prodN01_conf02_gfn1.xyz --opt --vfukui --chrg 1 --uhf 0 --alpb DMSO

   ID    Z sym.   atoms
    1    6 C      1, 4
    2    8 O      2, 5
    3    5 B      3
    4    1 H      6-13

      * Solvation model:               ALPB
        Solvent                        DMSO
        Solvent mass                       7.8130E+01 g/mol
          :  Hamiltonian                  GFN1-xTB          :
 * total energy  :   -19.0493308 Eh     change       -0.4070344E-10 Eh
 * total energy  :   -19.0591919 Eh     change       -0.9861109E-02 Eh
 * total energy  :   -19.0619202 Eh     change       -0.2728317E-02 Eh
 * total energy  :   -19.0626526 Eh     change       -0.7324085E-03 Eh
 * total energy  :   -19.0636049 Eh     change       -0.9522499E-03 Eh
 * total energy  :   -19.0638341 Eh     change       -0.2292506E-03 Eh
 * total energy  :   -19.0639446 Eh     change       -0.1105011E-03 Eh
 * total energy  :   -19.0639898 Eh     change       -0.4519149E-04 Eh
 * total energy  :   -19.0640181 Eh     change       -0.2824188E-04 Eh
 * total energy  :   -19.0640275 Eh     change       -0.9397915E-05 Eh
 * total energy  :   -19.0640412 Eh     change       -0.7881268E-05 Eh
 * total energy  :   -19.0640491 Eh     change       -0.7944546E-05 Eh
 * total energy  :   -19.0640830 Eh     change       -0.3386628E-04 Eh
 * total energy  :   -19.0641040 Eh     change       -0.2096726E-04 Eh
 * total energy  :   -19.0641214 Eh     change       -0.1746473E-04 Eh
 * total energy  :   -19.0641338 Eh     change       -0.1240166E-04 Eh
 * total energy  :   -19.0641453 Eh     change       -0.1144675E-04 Eh
 * total energy  :   -19.0641484 Eh     change       -0.3122907E-05 Eh
 * total energy  :   -19.0641528 Eh     change       -0.4365619E-05 Eh
   *** GEOMETRY OPTIMIZATION CONVERGED AFTER 20 ITERATIONS ***

 final structure:
================
13
 xtb: 6.5.1 (579679a)
C            1.96277848135166        0.03021254558220       -0.01409749671679
O            0.57883929632540        0.08740020320908       -0.46637798576139
B           -0.66746965602703       -0.09310240266870        0.33198725048136
C           -1.98762503052337        0.07947036580385       -0.45717243370270
O           -0.54904398258244       -0.38949725877129        1.60753493312870
H            1.97838090420100       -0.56667213614810        0.89229906782468
H            2.54970158841899       -0.44831306556533       -0.79457639213213
H            2.31078167073029        1.04342232014364        0.18085883533701
H            0.50214011303759        0.38804360243997       -1.38268608332301
H           -2.85060429916311        0.00443974425405        0.20262969045221
H           -2.02051976859145        1.04294648129925       -0.96428395110093
H           -2.07804783969508       -0.68727667448293       -1.22645321939278
H            0.27068852251753       -0.49107472509591        2.09033778490567

          :  Hamiltonian                  GFN1-xTB          :
         :: total energy             -19.064152763268 Eh    ::
         :: gradient norm              0.000683760058 Eh/a0 ::
         :: HOMO-LUMO gap              7.748401143071 eV    ::
         :: SCC energy               -19.257140893007 Eh    ::
         :: -> Gsolv                  -0.098802443626 Eh    ::
         :: repulsion energy           0.196487555298 Eh    ::

    * Orbital Energies and Occupations

         #    Occupation            Energy/Eh            Energy/eV
      -------------------------------------------------------------
         1        2.0000           -0.9096899             -24.7539
       ...           ...                  ...                  ...
         3        2.0000           -0.7671170             -20.8743
         4        2.0000           -0.7506297             -20.4257
         5        2.0000           -0.7003505             -19.0575
         6        2.0000           -0.6871247             -18.6976
         7        2.0000           -0.6612954             -17.9948
         8        2.0000           -0.6505502             -17.7024
         9        2.0000           -0.6084581             -16.5570
        10        2.0000           -0.6018797             -16.3780
        11        2.0000           -0.5712885             -15.5456
        12        2.0000           -0.5551404             -15.1061
        13        2.0000           -0.5445447             -14.8178
        14        2.0000           -0.5428460             -14.7716
        15        2.0000           -0.5332686             -14.5110 (HOMO)
        16                         -0.2485201              -6.7626 (LUMO)
        17                         -0.1919165              -5.2223
        18                         -0.1821950              -4.9578
        19                         -0.1512250              -4.1150
        20                         -0.1387107              -3.7745
        21                         -0.1085385              -2.9535
        22                         -0.0852838              -2.3207
        23                         -0.0809503              -2.2028
        24                         -0.0741077              -2.0166
        25                         -0.0514937              -1.4012
        26                          0.0843659               2.2957
       ...                                ...                  ...
        36                          0.6291219              17.1193
      -------------------------------------------------------------
                  HL-Gap            0.2847485 Eh            7.7484 eV

Wiberg/Mayer (AO) data.
largest (>0.10) Wiberg bond orders for each atom

     #   Z sym  total        # sym  WBO       # sym  WBO       # sym  WBO
 ---------------------------------------------------------------------------
     1   6 C    3.789 --     6 H    0.981     8 H    0.980     7 H    0.979
                             2 O    0.813
     2   8 O    2.369 --     1 C    0.813     9 H    0.759     3 B    0.734
     3   5 B    3.142 --     5 O    1.292     4 C    1.039     2 O    0.734
     4   6 C    3.988 --     3 B    1.039    10 H    0.974    11 H    0.962
                            12 H    0.957
     5   8 O    2.162 --     3 B    1.292    13 H    0.794
     6   1 H    0.994 --     1 C    0.981
     7   1 H    0.993 --     1 C    0.979
     8   1 H    0.994 --     1 C    0.980
     9   1 H    0.787 --     2 O    0.759
    10   1 H    0.992 --     4 C    0.974
    11   1 H    0.993 --     4 C    0.962
    12   1 H    0.992 --     4 C    0.957
    13   1 H    0.821 --     5 O    0.794
 ---------------------------------------------------------------------------

           -------------------------------------------------
          | TOTAL ENERGY              -19.064152763268 Eh   |
          | GRADIENT NORM               0.000683760058 Eh/α |
          | HOMO-LUMO GAP               7.748401143071 eV   |
           -------------------------------------------------

 * finished run on 2023/06/20 at 15:48:42.225
