   * xtb version 6.5.1 (579679a) compiled by 'ehlert@majestix' on 2022-07-11
          program call               : /lustre/hpc/kemi/ree/PhD/git/ReactivityQM/dep/xtb-6.5.1/bin/xtb --gfn 1 /lustre/hpc/kemi/ree/PhD/git/ReactivityQM/calculations/R02deprot/reac01prodE03/conf05/R02deprot_reac01prodE03_conf05_gfn1.xyz --opt --vfukui --chrg -2 --uhf 0 --alpb DMSO

   ID    Z sym.   atoms
    1    6 C      1, 3, 5, 6, 8-11, 13, 15, 18, 19, 22, 24
    2    8 O      2, 4, 14, 20, 23, 25
    3    7 N      7, 12, 16, 17, 21
    4    1 H      26-42

      * Solvation model:               ALPB
        Solvent                        DMSO
        Solvent mass                       7.8130E+01 g/mol
          :  Hamiltonian                  GFN1-xTB          :
 * total energy  :   -83.5512657 Eh     change       -0.1012808E-09 Eh
 * total energy  :   -83.5637842 Eh     change       -0.1251848E-01 Eh
 * total energy  :   -83.5692461 Eh     change       -0.5461962E-02 Eh
 * total energy  :   -83.5707183 Eh     change       -0.1472165E-02 Eh
 * total energy  :   -83.5717019 Eh     change       -0.9835846E-03 Eh
 * total energy  :   -83.5722952 Eh     change       -0.5933421E-03 Eh
 * total energy  :   -83.5727783 Eh     change       -0.4830284E-03 Eh
 * total energy  :   -83.5731729 Eh     change       -0.3946031E-03 Eh
 * total energy  :   -83.5734870 Eh     change       -0.3141536E-03 Eh
 * total energy  :   -83.5737404 Eh     change       -0.2533465E-03 Eh
 * total energy  :   -83.5777487 Eh     change       -0.1992384E-04 Eh
 * total energy  :   -83.5777912 Eh     change       -0.4252597E-04 Eh
 * total energy  :   -83.5778251 Eh     change       -0.3392930E-04 Eh
 * total energy  :   -83.5778468 Eh     change       -0.2170264E-04 Eh
 * total energy  :   -83.5778617 Eh     change       -0.1488120E-04 Eh
 * total energy  :   -83.5778696 Eh     change       -0.7871012E-05 Eh
 * total energy  :   -83.5778774 Eh     change       -0.7822305E-05 Eh
 * total energy  :   -83.5778836 Eh     change       -0.6219859E-05 Eh
 * total energy  :   -83.5778877 Eh     change       -0.4127127E-05 Eh
   *** GEOMETRY OPTIMIZATION CONVERGED AFTER 71 ITERATIONS ***

 final structure:
================
42
 xtb: 6.5.1 (579679a)
C           -1.70155703454093        1.50175636822666        2.05972019173350
O           -1.86169074672600        0.08636276734449        2.11196694033864
C           -2.76134993918309       -0.45215996706924        1.18548075045053
O           -4.07017566260877       -0.60666058013725        1.69137485861069
C           -4.17418160704364       -1.53680797129509        2.75984342121491
C           -2.47333363639921       -0.52070423494833       -0.17204937235838
N           -1.18585122895752       -0.14141136546707       -0.53787377778641
C           -0.87445477897283       -0.22815012874734       -1.81644825780847
C            0.54014739608118        0.24418964089007       -2.18360362243688
C            0.46908926293356        1.73907020694234       -2.54208146005660
C            1.08730919839469       -0.56855099901326       -3.36261992370706
N            1.37741382354418        0.05571856738876       -1.00177241214632
C            2.68609772493914        0.39508059753364       -0.91433386876318
O            3.38054188949672        0.78508008550461       -1.86614899652779
C            3.20429154302474        0.20697553181576        0.43802585347614
N            2.52949996428297       -0.22822245347906        1.48468539590488
N            3.40608690266873       -0.25054454050734        2.53424267889266
C            4.54556662582226        0.16368252290065        2.08353180620166
C            5.81007926551078        0.31501653986905        2.84244957591727
O            4.50486074180460        0.47205047698119        0.77060376501535
N           -1.62448803947160       -0.63043202778735       -2.82402931703538
C           -2.92680548160306       -1.04888331584538       -2.55328310338813
O           -3.65741537443072       -1.45765219863742       -3.50065642700531
C           -3.33921545270276       -0.98094485326730       -1.19379461204637
O           -4.64757323629186       -1.40326066976081       -0.90119970770971
H           -2.66582541985287        2.01703314968834        2.15422428368100
H           -1.22372619849210        1.80429412483854        1.11728954594025
H           -1.06145535542780        1.79067668662936        2.89649298675887
H           -3.52599849250401       -1.24691042090429        3.59594804238594
H           -3.90206260169567       -2.55009161471533        2.43441989607710
H           -5.21156363291908       -1.53406365160294        3.09792828102273
H           -0.22780592651398        1.87939911839204       -3.36845827520950
H            0.11404196722399        2.30638914620979       -1.68138815797005
H            1.44783161943427        2.11736785989499       -2.83582785879448
H            2.04319425362760       -0.17243743925047       -3.70222898161132
H            0.37135897309793       -0.52672261135565       -4.18464289807478
H            1.22038888018768       -1.61041792020582       -3.06903946577789
H            0.85952221188632       -0.11577997114940       -0.13999957193817
H            5.63718774962831        0.07696508934951        3.88899531626812
H            6.57348783180162       -0.35291976926376        2.44315067720058
H            6.18030550289580        1.33647133220086        2.75944699144789
H           -4.87177448195526       -1.12985110819212        0.00165780961251

          :  Hamiltonian                  GFN1-xTB          :
         :: total energy             -83.577887730820 Eh    ::
         :: gradient norm              0.000960726463 Eh/a0 ::
         :: HOMO-LUMO gap              0.079782168390 eV    ::
         :: SCC energy               -84.298841707659 Eh    ::
         :: -> Gsolv                  -0.275090940833 Eh    ::
         :: repulsion energy           0.746786998541 Eh    ::

    * Orbital Energies and Occupations

         #    Occupation            Energy/Eh            Energy/eV
      -------------------------------------------------------------
         1        2.0000           -0.8202658             -22.3206
       ...           ...                  ...                  ...
        56        2.0000           -0.4286259             -11.6635
        57        2.0000           -0.4250635             -11.5666
        58        2.0000           -0.4205451             -11.4436
        59        2.0000           -0.4193375             -11.4108
        60        2.0000           -0.4159808             -11.3194
        61        2.0000           -0.4070059             -11.0752
        62        2.0000           -0.3959656             -10.7748
        63        2.0000           -0.3841360             -10.4529
        64        2.0000           -0.3784225             -10.2974
        65        2.0000           -0.3525316              -9.5929
        66        2.0000           -0.3262132              -8.8767
        67        2.0000           -0.3228603              -8.7855
        68        1.6478           -0.2745264              -7.4702 (HOMO)
        69        0.3522           -0.2715945              -7.3905 (LUMO)
        70                         -0.2234446              -6.0802
        71                         -0.1784701              -4.8564
        72                         -0.1610071              -4.3812
        73                         -0.1520055              -4.1363
        74                         -0.1297367              -3.5303
        75                         -0.1069037              -2.9090
        76                         -0.1042757              -2.8375
        77                         -0.0923582              -2.5132
        78                         -0.0870978              -2.3701
        79                         -0.0624680              -1.6998
       ...                                ...                  ...
       134                          0.7073452              19.2478
      -------------------------------------------------------------
                  HL-Gap            0.0029319 Eh            0.0798 eV

Wiberg/Mayer (AO) data.
largest (>0.10) Wiberg bond orders for each atom

     #   Z sym  total        # sym  WBO       # sym  WBO       # sym  WBO
 ---------------------------------------------------------------------------
     1   6 C    3.914 --    28 H    0.986    26 H    0.983    27 H    0.980
                             2 O    0.936
     2   8 O    2.000 --     3 C    0.938     1 C    0.936
     3   6 C    3.469 --     6 C    1.395     2 O    0.938     4 O    0.913
     4   8 O    2.025 --     5 C    0.942     3 C    0.913
     5   6 C    3.916 --    31 H    0.986    29 H    0.982    30 H    0.982
                             4 O    0.942
     6   6 C    3.965 --     3 C    1.395    24 C    1.256     7 N    1.131
     7   7 N    2.968 --     8 C    1.437     6 C    1.131    21 N    0.124
     8   6 C    3.959 --     7 N    1.437    21 N    1.422     9 C    0.957
     9   6 C    3.930 --    11 C    0.994    10 C    0.980     8 C    0.957
                            12 N    0.928
    10   6 C    3.993 --    32 H    0.987    33 H    0.987    34 H    0.984
                             9 C    0.980
    11   6 C    3.995 --     9 C    0.994    37 H    0.987    35 H    0.985
                            36 H    0.983
    12   7 N    3.282 --    13 C    1.224     9 C    0.928    38 H    0.886
                            14 O    0.154
    13   6 C    3.834 --    14 O    1.483    12 N    1.224    15 C    1.057
    14   8 O    1.760 --    13 C    1.483    12 N    0.154
    15   6 C    3.736 --    16 N    1.493    13 C    1.057    20 O    1.008
    16   7 N    2.846 --    15 C    1.493    17 N    1.185
    17   7 N    2.980 --    18 C    1.626    16 N    1.185
    18   6 C    3.840 --    17 N    1.626    20 O    1.062    19 C    1.026
    19   6 C    3.992 --    18 C    1.026    39 H    0.985    41 H    0.970
                            40 H    0.968
    20   8 O    2.233 --    18 C    1.062    15 C    1.008
    21   7 N    2.916 --     8 C    1.422    22 C    1.126     7 N    0.124
    22   6 C    3.911 --    23 O    1.406    24 C    1.251    21 N    1.126
    23   8 O    1.662 --    22 C    1.406
    24   6 C    3.714 --     6 C    1.256    22 C    1.251    25 O    0.963
    25   8 O    1.917 --    24 C    0.963    42 H    0.853
    26   1 H    1.016 --     1 C    0.983
    27   1 H    1.037 --     1 C    0.980
    28   1 H    1.021 --     1 C    0.986
    29   1 H    1.024 --     5 C    0.982
    30   1 H    1.018 --     5 C    0.982
    31   1 H    1.020 --     5 C    0.986
    32   1 H    1.011 --    10 C    0.987
    33   1 H    1.012 --    10 C    0.987
    34   1 H    1.014 --    10 C    0.984
    35   1 H    1.019 --    11 C    0.985
    36   1 H    1.032 --    11 C    0.983
    37   1 H    1.011 --    11 C    0.987
    38   1 H    0.998 --    12 N    0.886
    39   1 H    1.003 --    19 C    0.985
    40   1 H    1.000 --    19 C    0.968
    41   1 H    1.000 --    19 C    0.970
    42   1 H    0.907 --    25 O    0.853
 ---------------------------------------------------------------------------

           -------------------------------------------------
          | TOTAL ENERGY              -83.577887730820 Eh   |
          | GRADIENT NORM               0.000960726463 Eh/α |
          | HOMO-LUMO GAP               0.079782168390 eV   |
           -------------------------------------------------

 * finished run on 2023/06/20 at 17:35:15.747
