   * xtb version 6.5.1 (579679a) compiled by 'ehlert@majestix' on 2022-07-11
          program call               : /lustre/hpc/kemi/ree/PhD/git/ReactivityQM/dep/xtb-6.5.1/bin/xtb --gfn 1 /lustre/hpc/kemi/ree/PhD/git/ReactivityQM/calculations/R03/reac02prodN13/conf18/R03_reac02prodN13_conf18_gfn1.xyz --opt --vfukui --chrg 1 --uhf 0 --alpb DMSO

   ID    Z sym.   atoms
    1    6 C      1, 3, 5, 7-10, 12, 14, 17-19, 22, 23, 25
    2    8 O      2, 4, 13, 20, 24, 26
    3    7 N      6, 11, 15, 16, 21
    4    1 H      27-46

      * Solvation model:               ALPB
        Solvent                        DMSO
        Solvent mass                       7.8130E+01 g/mol
          :  Hamiltonian                  GFN1-xTB          :
 * total energy  :   -86.2778666 Eh     change       -0.1368960E-08 Eh
 * total energy  :   -86.2931456 Eh     change       -0.1527901E-01 Eh
 * total energy  :   -86.2990792 Eh     change       -0.5933657E-02 Eh
 * total energy  :   -86.3001931 Eh     change       -0.1113871E-02 Eh
 * total energy  :   -86.3009103 Eh     change       -0.7171722E-03 Eh
 * total energy  :   -86.3012124 Eh     change       -0.3021208E-03 Eh
 * total energy  :   -86.3014687 Eh     change       -0.2563282E-03 Eh
 * total energy  :   -86.3016477 Eh     change       -0.1789605E-03 Eh
 * total energy  :   -86.3017662 Eh     change       -0.1184823E-03 Eh
 * total energy  :   -86.3018443 Eh     change       -0.7814231E-04 Eh
 * total energy  :   -86.3025026 Eh     change       -0.1707559E-04 Eh
 * total energy  :   -86.3025250 Eh     change       -0.2243724E-04 Eh
 * total energy  :   -86.3025519 Eh     change       -0.2683423E-04 Eh
 * total energy  :   -86.3025710 Eh     change       -0.1908794E-04 Eh
 * total energy  :   -86.3025871 Eh     change       -0.1617692E-04 Eh
 * total energy  :   -86.3025997 Eh     change       -0.1255407E-04 Eh
 * total energy  :   -86.3026069 Eh     change       -0.7235396E-05 Eh
 * total energy  :   -86.3026134 Eh     change       -0.6443849E-05 Eh
 * total energy  :   -86.3026180 Eh     change       -0.4661814E-05 Eh
   *** GEOMETRY OPTIMIZATION CONVERGED AFTER 36 ITERATIONS ***

 final structure:
================
46
 xtb: 6.5.1 (579679a)
C           -5.68373950330649       -2.61406835489178       -0.64604504773753
O           -4.58075883603247       -1.74890449555536       -0.34175882371685
C           -4.52697972992364       -0.60657672212381       -1.00023286489639
O           -5.35026561539505       -0.26424528754641       -1.82902756588429
C           -3.36242230578510        0.24487760247124       -0.64395509014150
N           -2.48698587579074       -0.22105955363806        0.28048179103990
C           -1.45041177100012        0.48170722913426        0.63233757192358
C           -0.57638638111074       -0.15712353961114        1.70106425334370
C           -0.86289930344328        0.46599823008305        3.07075772807924
C           -0.85129900825139       -1.66811093708637        1.74952511370860
N            0.84578272627325        0.01571808937297        1.38648287259787
C            1.32589419466299       -0.26509659540997        0.16089661077543
O            0.67014843428638       -0.53905706643755       -0.81902785549319
C            2.82540653664698       -0.16966533037252        0.13402330497813
N            3.59853026055145        0.18325361196687        1.20567627497761
N            4.80943345139252        0.13771056497260        0.84191398693786
C            4.89324533080129       -0.26333518520444       -0.52665816249939
C            5.52239908944765        0.84442903403069       -1.38047439062476
C            5.63926646141615       -1.59739151931369       -0.65502368533117
O            3.52744658397943       -0.43983565546270       -0.89944767341011
N           -1.21523901063267        1.72195881391739        0.12261315090080
C           -0.09700212927449        2.58450633228347        0.50108702354690
C           -2.02200604948165        2.28742577394896       -0.87456257560290
O           -1.75208905506153        3.37900301242417       -1.34087442362314
C           -3.17257878884078        1.46677037053707       -1.25496887927484
O           -3.97180590278521        1.97114291311733       -2.18189071929893
H           -6.62457733208174       -2.10611425066512       -0.42403929749504
H           -5.65816071680108       -2.88876239729029       -1.70261005874492
H           -5.56683258076851       -3.49496232494625       -0.01890571576886
H           -0.63447573755265        1.52898754755706        3.08209245460433
H           -0.26158843180027       -0.03065954792988        3.82980170647628
H           -1.91636889349313        0.33067930282880        3.31150331663173
H           -0.70344341669524       -2.10705447664815        0.76442076422296
H           -1.87879781808774       -1.84104657176797        2.06369940523457
H           -0.17118346596960       -2.13395642837488        2.45916812333563
H            1.48533611814004        0.15221145010811        2.15255402465854
H            4.95065867684931        1.76110984503860       -1.25598587482337
H            6.54743051340768        0.99944035692808       -1.05342688791854
H            5.50523647684033        0.53674639714995       -2.42315976967046
H            5.14373493896368       -2.34564248910951       -0.04046201502867
H            5.62659510058216       -1.90747960408012       -1.69717266108128
H            6.66375338060423       -1.45997592273393       -0.31857645754930
H            0.64073997569279        2.57737024929144       -0.30121517025616
H           -0.47886693357628        3.59783734962078        0.62627855931921
H            0.35651896521605        2.24669482990793        1.42246441485517
H           -4.72039262280968        1.35454534950664       -2.36988178627555

          :  Hamiltonian                  GFN1-xTB          :
         :: total energy             -86.302618037557 Eh    ::
         :: gradient norm              0.000670037480 Eh/a0 ::
         :: HOMO-LUMO gap              0.120412988090 eV    ::
         :: SCC energy               -87.122513185584 Eh    ::
         :: -> Gsolv                  -0.112384094400 Eh    ::
         :: repulsion energy           0.849509901994 Eh    ::

    * Orbital Energies and Occupations

         #    Occupation            Energy/Eh            Energy/eV
      -------------------------------------------------------------
         1        2.0000           -0.9297818             -25.3006
       ...           ...                  ...                  ...
        58        2.0000           -0.5381866             -14.6448
        59        2.0000           -0.5285982             -14.3839
        60        2.0000           -0.5241569             -14.2630
        61        2.0000           -0.5226958             -14.2233
        62        2.0000           -0.5157204             -14.0335
        63        2.0000           -0.5085538             -13.8385
        64        2.0000           -0.5043034             -13.7228
        65        2.0000           -0.5034583             -13.6998
        66        2.0000           -0.4954151             -13.4809
        67        2.0000           -0.4915564             -13.3759
        68        2.0000           -0.4769841             -12.9794
        69        2.0000           -0.4622065             -12.5773
        70        1.8225           -0.4446008             -12.0982 (HOMO)
        71        0.1775           -0.4401757             -11.9778 (LUMO)
        72                         -0.3594434              -9.7810
        73                         -0.3415380              -9.2937
        74                         -0.3042792              -8.2799
        75                         -0.2585471              -7.0354
        76                         -0.2577487              -7.0137
        77                         -0.1771688              -4.8210
        78                         -0.1608602              -4.3772
        79                         -0.1573938              -4.2829
        80                         -0.1552430              -4.2244
        81                         -0.1463914              -3.9835
       ...                                ...                  ...
       144                          0.7062096              19.2169
      -------------------------------------------------------------
                  HL-Gap            0.0044251 Eh            0.1204 eV

Wiberg/Mayer (AO) data.
largest (>0.10) Wiberg bond orders for each atom

     #   Z sym  total        # sym  WBO       # sym  WBO       # sym  WBO
 ---------------------------------------------------------------------------
     1   6 C    3.858 --    29 H    0.986    28 H    0.978    27 H    0.978
                             2 O    0.885
     2   8 O    2.225 --     3 C    1.151     1 C    0.885     4 O    0.135
     3   6 C    3.850 --     4 O    1.613     2 O    1.151     5 C    1.006
     4   8 O    1.948 --     3 C    1.613     2 O    0.135
     5   6 C    3.923 --    25 C    1.423     6 N    1.230     3 C    1.006
     6   7 N    2.984 --     7 C    1.511     5 C    1.230
     7   6 C    3.899 --     6 N    1.511    21 N    1.211     8 C    0.975
     8   6 C    3.914 --     9 C    0.982    10 C    0.975     7 C    0.975
                            11 N    0.914
     9   6 C    3.981 --     8 C    0.982    32 H    0.981    31 H    0.980
                            30 H    0.978
    10   6 C    3.978 --    35 H    0.984    33 H    0.981    34 H    0.979
                             8 C    0.975
    11   7 N    3.385 --    12 C    1.265     8 C    0.914    36 H    0.882
                            13 O    0.207
    12   6 C    3.923 --    13 O    1.618    11 N    1.265    14 C    0.956
    13   8 O    1.937 --    12 C    1.618    11 N    0.207
    14   6 C    3.726 --    20 O    1.316    15 N    1.222    12 C    0.956
    15   7 N    3.023 --    16 N    1.642    14 C    1.222
    16   7 N    2.880 --    15 N    1.642    17 C    1.049
    17   6 C    3.818 --    16 N    1.049    18 C    0.909    19 C    0.908
                            20 O    0.868
    18   6 C    3.936 --    37 H    0.980    38 H    0.978    39 H    0.977
                            17 C    0.909
    19   6 C    3.935 --    40 H    0.980    42 H    0.978    41 H    0.977
                            17 C    0.908
    20   8 O    2.354 --    14 C    1.316    17 C    0.868
    21   7 N    3.494 --     7 C    1.211    23 C    1.086    22 C    0.929
                            24 O    0.123
    22   6 C    3.916 --    45 H    0.978    43 H    0.972    44 H    0.972
                            21 N    0.929
    23   6 C    3.894 --    24 O    1.612    21 N    1.086    25 C    1.057
    24   8 O    1.886 --    23 C    1.612    21 N    0.123
    25   6 C    3.855 --     5 C    1.423    26 O    1.157    23 C    1.057
    26   8 O    2.088 --    25 C    1.157    46 H    0.765
    27   1 H    1.004 --     1 C    0.978
    28   1 H    1.004 --     1 C    0.978
    29   1 H    1.009 --     1 C    0.986
    30   1 H    0.998 --     9 C    0.978
    31   1 H    0.994 --     9 C    0.980
    32   1 H    0.997 --     9 C    0.981
    33   1 H    1.005 --    10 C    0.981
    34   1 H    1.007 --    10 C    0.979
    35   1 H    0.998 --    10 C    0.984
    36   1 H    0.931 --    11 N    0.882
    37   1 H    0.992 --    18 C    0.980
    38   1 H    0.992 --    18 C    0.978
    39   1 H    0.992 --    18 C    0.977
    40   1 H    0.991 --    19 C    0.980
    41   1 H    0.992 --    19 C    0.977
    42   1 H    0.992 --    19 C    0.978
    43   1 H    0.998 --    22 C    0.972
    44   1 H    1.001 --    22 C    0.972
    45   1 H    1.005 --    22 C    0.978
    46   1 H    0.842 --    26 O    0.765
 ---------------------------------------------------------------------------

           -------------------------------------------------
          | TOTAL ENERGY              -86.302618037557 Eh   |
          | GRADIENT NORM               0.000670037480 Eh/α |
          | HOMO-LUMO GAP               0.120412988090 eV   |
           -------------------------------------------------

 * finished run on 2023/06/20 at 15:48:54.044
