   * xtb version 6.5.1 (579679a) compiled by 'ehlert@majestix' on 2022-07-11
          program call               : /lustre/hpc/kemi/ree/PhD/git/ReactivityQM/dep/xtb-6.5.1/bin/xtb --gfn 1 /lustre/hpc/kemi/ree/PhD/git/ReactivityQM/calculations/R01/reac01/conf02/R01_reac01_conf02_gfn1.xyz --opt --vfukui --chrg 0 --uhf 0 --alpb DMSO

   ID    Z sym.   atoms
    1    6 C      1, 3, 5, 8, 9
    2    8 O      2, 4, 10
    3    7 N      6, 7
    4    1 H      11-16

      * Solvation model:               ALPB
        Solvent                        DMSO
        Solvent mass                       7.8130E+01 g/mol
          :  Hamiltonian                  GFN1-xTB          :
 * total energy  :   -34.2874249 Eh     change       -0.2138734E-11 Eh
 * total energy  :   -34.2928796 Eh     change       -0.5454706E-02 Eh
 * total energy  :   -34.2949432 Eh     change       -0.2063597E-02 Eh
 * total energy  :   -34.2955044 Eh     change       -0.5611595E-03 Eh
 * total energy  :   -34.2959266 Eh     change       -0.4222045E-03 Eh
 * total energy  :   -34.2961580 Eh     change       -0.2313566E-03 Eh
 * total energy  :   -34.2963148 Eh     change       -0.1568399E-03 Eh
 * total energy  :   -34.2964194 Eh     change       -0.1046482E-03 Eh
 * total energy  :   -34.2964687 Eh     change       -0.4921446E-04 Eh
 * total energy  :   -34.2964867 Eh     change       -0.1801966E-04 Eh
 * total energy  :   -34.2967117 Eh     change       -0.6177922E-05 Eh
 * total energy  :   -34.2967168 Eh     change       -0.5069862E-05 Eh
 * total energy  :   -34.2967247 Eh     change       -0.7954472E-05 Eh
 * total energy  :   -34.2967292 Eh     change       -0.4432076E-05 Eh
 * total energy  :   -34.2967359 Eh     change       -0.6761217E-05 Eh
 * total energy  :   -34.2967455 Eh     change       -0.9539772E-05 Eh
 * total energy  :   -34.2967531 Eh     change       -0.7614938E-05 Eh
 * total energy  :   -34.2967591 Eh     change       -0.6016518E-05 Eh
 * total energy  :   -34.2967638 Eh     change       -0.4734455E-05 Eh
   *** GEOMETRY OPTIMIZATION CONVERGED AFTER 31 ITERATIONS ***

 final structure:
================
16
 xtb: 6.5.1 (579679a)
C            3.18308682372297        1.02702605590281       -0.23357623758665
O            1.79515117979207        0.67317847253054       -0.19272861713546
C            1.49319336723087       -0.49038578338910        0.36506606406020
O            2.29833909768616       -1.26051002761139        0.83005670321497
C            0.03369280378047       -0.74988149543940        0.35483098776017
N           -0.57171720076897       -1.79416405744265        0.83673507536921
N           -1.89852587438718       -1.61540196838402        0.61392843856619
C           -2.02578462678896       -0.47194408040925        0.00809286213949
C           -3.27513586417342        0.17350616640349       -0.44811468520876
O           -0.84198266851050        0.12288486394750       -0.18400107079670
H            3.24404668989949        1.96947148978993       -0.77263141110929
H            3.75093032369748        0.25138966809324       -0.75163591707144
H            3.56656500589557        1.14216452137525        0.78225654132054
H           -3.20859728494294        0.39984115918681       -1.51171153621635
H           -3.42534973813654        1.11138749507517        0.08670466120155
H           -4.11791103399654       -0.48856247962896       -0.26489585850769

          :  Hamiltonian                  GFN1-xTB          :
         :: total energy             -34.296763818457 Eh    ::
         :: gradient norm              0.000604504350 Eh/a0 ::
         :: HOMO-LUMO gap              3.729953355316 eV    ::
         :: SCC energy               -34.589941662771 Eh    ::
         :: -> Gsolv                  -0.021505473423 Eh    ::
         :: repulsion energy           0.299136761615 Eh    ::

    * Orbital Energies and Occupations

         #    Occupation            Energy/Eh            Energy/eV
      -------------------------------------------------------------
         1        2.0000           -0.8707305             -23.6938
       ...           ...                  ...                  ...
        15        2.0000           -0.5966011             -16.2343
        16        2.0000           -0.5707908             -15.5320
        17        2.0000           -0.5647650             -15.3680
        18        2.0000           -0.5496136             -14.9557
        19        2.0000           -0.5484368             -14.9237
        20        2.0000           -0.5371848             -14.6175
        21        2.0000           -0.5203615             -14.1598
        22        2.0000           -0.5120873             -13.9346
        23        2.0000           -0.5037895             -13.7088
        24        2.0000           -0.4942938             -13.4504
        25        2.0000           -0.4837172             -13.1626
        26        2.0000           -0.4620045             -12.5718
        27        2.0000           -0.4604343             -12.5291 (HOMO)
        28                         -0.3233610              -8.7991 (LUMO)
        29                         -0.2623876              -7.1399
        30                         -0.2088457              -5.6830
        31                         -0.1450465              -3.9469
        32                         -0.1402643              -3.8168
        33                         -0.0770407              -2.0964
        34                         -0.0768395              -2.0909
        35                         -0.0765678              -2.0835
        36                         -0.0754589              -2.0533
        37                          0.0030024               0.0817
        38                          0.0390804               1.0634
       ...                                ...                  ...
        52                          0.7376726              20.0731
      -------------------------------------------------------------
                  HL-Gap            0.1370733 Eh            3.7300 eV

Wiberg/Mayer (AO) data.
largest (>0.10) Wiberg bond orders for each atom

     #   Z sym  total        # sym  WBO       # sym  WBO       # sym  WBO
 ---------------------------------------------------------------------------
     1   6 C    3.861 --    11 H    0.985    12 H    0.979    13 H    0.979
                             2 O    0.887
     2   8 O    2.217 --     3 C    1.132     1 C    0.887     4 O    0.142
     3   6 C    3.866 --     4 O    1.660     2 O    1.132     5 C    0.991
     4   8 O    1.931 --     3 C    1.660     2 O    0.142
     5   6 C    3.880 --     6 N    1.607    10 O    1.056     3 C    0.991
     6   7 N    3.005 --     5 C    1.607     7 N    1.216
     7   7 N    2.981 --     8 C    1.591     6 N    1.216
     8   6 C    3.869 --     7 N    1.591    10 O    1.089     9 C    1.033
     9   6 C    3.985 --     8 C    1.033    16 H    0.982    14 H    0.964
                            15 H    0.960
    10   8 O    2.329 --     8 C    1.089     5 C    1.056
    11   1 H    1.009 --     1 C    0.985
    12   1 H    1.005 --     1 C    0.979
    13   1 H    1.004 --     1 C    0.979
    14   1 H    0.996 --     9 C    0.964
    15   1 H    0.996 --     9 C    0.960
    16   1 H    0.998 --     9 C    0.982
 ---------------------------------------------------------------------------

           -------------------------------------------------
          | TOTAL ENERGY              -34.296763818457 Eh   |
          | GRADIENT NORM               0.000604504350 Eh/α |
          | HOMO-LUMO GAP               3.729953355316 eV   |
           -------------------------------------------------

 * finished run on 2023/06/20 at 14:51:56.431
