   * xtb version 6.5.1 (579679a) compiled by 'ehlert@majestix' on 2022-07-11
          program call               : /lustre/hpc/kemi/ree/PhD/git/ReactivityQM/dep/xtb-6.5.1/bin/xtb --gfn 1 /lustre/hpc/kemi/ree/PhD/git/ReactivityQM/calculations/R02methylcation/reac01prodN11/conf08/R02methylcation_reac01prodN11_conf08_gfn1.xyz --opt --vfukui --chrg 0 --uhf 0 --alpb DMSO

   ID    Z sym.   atoms
    1    6 C      1, 3, 5, 7-10, 12, 13, 15, 18, 19, 22, 24
    2    8 O      2, 4, 14, 20, 23, 25
    3    7 N      6, 11, 16, 17, 21
    4    1 H      26-42

      * Solvation model:               ALPB
        Solvent                        DMSO
        Solvent mass                       7.8130E+01 g/mol
          :  Hamiltonian                  GFN1-xTB          :
 * total energy  :   -82.8601221 Eh     change       -0.1264908E-09 Eh
 * total energy  :   -82.8732931 Eh     change       -0.1317100E-01 Eh
 * total energy  :   -82.8790648 Eh     change       -0.5771669E-02 Eh
 * total energy  :   -82.8803452 Eh     change       -0.1280442E-02 Eh
 * total energy  :   -82.8810168 Eh     change       -0.6715138E-03 Eh
 * total energy  :   -82.8813825 Eh     change       -0.3657613E-03 Eh
 * total energy  :   -82.8816123 Eh     change       -0.2297598E-03 Eh
 * total energy  :   -82.8817605 Eh     change       -0.1482310E-03 Eh
 * total energy  :   -82.8818808 Eh     change       -0.1202947E-03 Eh
 * total energy  :   -82.8820026 Eh     change       -0.1218311E-03 Eh
 * total energy  :   -82.8844424 Eh     change       -0.1290045E-04 Eh
 * total energy  :   -82.8844541 Eh     change       -0.1174498E-04 Eh
 * total energy  :   -82.8844661 Eh     change       -0.1199996E-04 Eh
 * total energy  :   -82.8844810 Eh     change       -0.1484094E-04 Eh
 * total energy  :   -82.8844938 Eh     change       -0.1284308E-04 Eh
 * total energy  :   -82.8845142 Eh     change       -0.2040834E-04 Eh
 * total energy  :   -82.8845203 Eh     change       -0.6107307E-05 Eh
 * total energy  :   -82.8845241 Eh     change       -0.3768470E-05 Eh
 * total energy  :   -82.8845286 Eh     change       -0.4482880E-05 Eh
   *** GEOMETRY OPTIMIZATION CONVERGED AFTER 56 ITERATIONS ***

 final structure:
================
42
 xtb: 6.5.1 (579679a)
C            5.20247611565434        2.86074553307940        0.84794163942498
O            4.25149963133794        1.83373554239471        0.55208129646103
C            4.62057929320326        0.58414539911171        0.83870654686449
O            5.69065108046769        0.30196890372380        1.32165636658425
C            3.54924745059902       -0.39845821258396        0.48645832069673
N            2.44363406292072        0.11153677059074       -0.05451154218254
C            1.41825152016282       -0.65364103372851       -0.36177293328971
C            0.21279125266642       -0.02163588285734       -0.99801178853022
C            0.45696655915516       -0.05893740528377       -2.52433336036095
C            0.05929189173888        1.43416025165022       -0.51893165747606
N           -0.95697911356403       -0.79067608147371       -0.65565649761587
C           -2.30376564034952       -0.38067066717905       -1.07891460558586
C           -3.05305550779613       -1.71765724697740       -1.46752030796726
O           -2.39129589286877        0.52417890957149       -1.98167351050983
C           -2.97759844647582        0.02366087932823        0.25874255263801
N           -2.38125580479415        0.44553329449308        1.32335038743661
N           -3.37534400821305        0.74702257698726        2.21512265542602
C           -4.50003771614207        0.48012931949773        1.63261167113595
C           -5.86588920238230        0.64178832128471        2.17662132655792
O           -4.31202265754376        0.01361732233940        0.38238341717873
N            1.44197598195723       -1.98721478198549       -0.16493488586469
C            2.52270209410313       -2.68357645490365        0.37076420062444
O            2.47297940317522       -3.88502946451105        0.49463904373795
C            3.71272190581085       -1.81795106180925        0.74922262105953
O            4.70831147657346       -2.33285917807614        1.23201342892209
H            5.43206471260021        2.86227240189300        1.91613154404983
H            4.74183772996631        3.80254359875224        0.55800005892275
H            6.12133405971523        2.69575601976719        0.28035497946909
H           -0.36586361406709        0.42923437580555       -3.04044520084399
H            1.38555204838467        0.46032373646908       -2.75317969371978
H            0.52799350179832       -1.09276607754918       -2.85484500067504
H           -0.18433495340176        1.44202804234357        0.54218962150624
H            0.99750804223706        1.95988521265955       -0.68479400014136
H           -0.73633057773343        1.92526627654579       -1.07426588810582
H           -0.93752132752324       -1.25169059721994        0.24202626280600
H           -4.08594084551966       -1.46284533159404       -1.68657015360558
H           -2.99868316847852       -2.43140282834447       -0.65250785767109
H           -2.56377958178531       -2.10884974731730       -2.35411234149405
H           -5.80826699107578        0.99306822250302        3.20408695090520
H           -6.39582807272707       -0.30983347907635        2.14258904349215
H           -6.42397555023002        1.36064375593217        1.57594248516733
H            0.64739885843998       -2.54754813425960       -0.43665719542435

          :  Hamiltonian                  GFN1-xTB          :
         :: total energy             -82.884528580643 Eh    ::
         :: gradient norm              0.000628345566 Eh/a0 ::
         :: HOMO-LUMO gap              0.065795570138 eV    ::
         :: SCC energy               -83.649456574473 Eh    ::
         :: -> Gsolv                  -0.064527353930 Eh    ::
         :: repulsion energy           0.791328365204 Eh    ::

    * Orbital Energies and Occupations

         #    Occupation            Energy/Eh            Energy/eV
      -------------------------------------------------------------
         1        2.0000           -0.8696834             -23.6653
       ...           ...                  ...                  ...
        55        2.0000           -0.5126139             -13.9489
        56        2.0000           -0.5088013             -13.8452
        57        2.0000           -0.5077001             -13.8152
        58        2.0000           -0.5000971             -13.6083
        59        2.0000           -0.4913675             -13.3708
        60        2.0000           -0.4854476             -13.2097
        61        2.0000           -0.4805961             -13.0777
        62        2.0000           -0.4659068             -12.6780
        63        2.0000           -0.4618375             -12.5672
        64        2.0000           -0.4522644             -12.3067
        65        2.0000           -0.4458012             -12.1309
        66        2.0000           -0.4407495             -11.9934
        67        1.5624           -0.4236595             -11.5284 (HOMO)
        68        0.4376           -0.4212415             -11.4626 (LUMO)
        69                         -0.3272749              -8.9056
        70                         -0.3033237              -8.2539
        71                         -0.2749634              -7.4821
        72                         -0.2582112              -7.0263
        73                         -0.2507263              -6.8226
        74                         -0.1767195              -4.8088
        75                         -0.1438301              -3.9138
        76                         -0.1407127              -3.8290
        77                         -0.1385648              -3.7705
        78                         -0.1326781              -3.6104
       ...                                ...                  ...
       134                          0.7513670              20.4457
      -------------------------------------------------------------
                  HL-Gap            0.0024179 Eh            0.0658 eV

Wiberg/Mayer (AO) data.
largest (>0.10) Wiberg bond orders for each atom

     #   Z sym  total        # sym  WBO       # sym  WBO       # sym  WBO
 ---------------------------------------------------------------------------
     1   6 C    3.867 --    27 H    0.986    26 H    0.978    28 H    0.978
                             2 O    0.895
     2   8 O    2.193 --     3 C    1.112     1 C    0.895     4 O    0.138
     3   6 C    3.845 --     4 O    1.665     2 O    1.112     5 C    0.997
     4   8 O    1.909 --     3 C    1.665     2 O    0.138
     5   6 C    3.740 --     6 N    1.385    24 C    1.112     3 C    0.997
     6   7 N    2.987 --     7 C    1.387     5 C    1.385
     7   6 C    3.809 --     6 N    1.387    21 N    1.240     8 C    1.002
     8   6 C    3.929 --     7 C    1.002    11 N    0.975    10 C    0.946
                             9 C    0.930
     9   6 C    3.958 --    30 H    0.986    31 H    0.985    29 H    0.971
                             8 C    0.930
    10   6 C    3.957 --    32 H    0.982    33 H    0.978    34 H    0.978
                             8 C    0.946
    11   7 N    3.154 --     8 C    0.975    12 C    0.918    35 H    0.904
                            14 O    0.154
    12   6 C    3.876 --    14 O    1.260    11 N    0.918    15 C    0.823
                            13 C    0.812
    13   6 C    3.845 --    37 H    0.988    36 H    0.981    38 H    0.980
                            12 C    0.812
    14   8 O    1.606 --    12 C    1.260    11 N    0.154
    15   6 C    3.762 --    16 N    1.643    20 O    1.077    12 C    0.823
    16   7 N    2.999 --    15 C    1.643    17 N    1.160
    17   7 N    2.980 --    18 C    1.630    16 N    1.160
    18   6 C    3.857 --    17 N    1.630    20 O    1.056    19 C    1.030
    19   6 C    3.984 --    18 C    1.030    39 H    0.981    40 H    0.964
                            41 H    0.962
    20   8 O    2.323 --    15 C    1.077    18 C    1.056
    21   7 N    3.450 --     7 C    1.240    22 C    1.081    42 H    0.873
                            23 O    0.103
    22   6 C    3.834 --    23 O    1.690    21 N    1.081    24 C    0.937
    23   8 O    1.908 --    22 C    1.690    21 N    0.103
    24   6 C    3.851 --    25 O    1.668     5 C    1.112    22 C    0.937
    25   8 O    1.826 --    24 C    1.668
    26   1 H    1.005 --     1 C    0.978
    27   1 H    1.010 --     1 C    0.986
    28   1 H    1.005 --     1 C    0.978
    29   1 H    1.010 --     9 C    0.971
    30   1 H    1.000 --     9 C    0.986
    31   1 H    0.999 --     9 C    0.985
    32   1 H    1.015 --    10 C    0.982
    33   1 H    1.009 --    10 C    0.978
    34   1 H    1.009 --    10 C    0.978
    35   1 H    0.947 --    11 N    0.904
    36   1 H    1.003 --    13 C    0.981
    37   1 H    0.998 --    13 C    0.988
    38   1 H    0.996 --    13 C    0.980
    39   1 H    0.997 --    19 C    0.981
    40   1 H    0.996 --    19 C    0.964
    41   1 H    0.997 --    19 C    0.962
    42   1 H    0.921 --    21 N    0.873
 ---------------------------------------------------------------------------

           -------------------------------------------------
          | TOTAL ENERGY              -82.884528580643 Eh   |
          | GRADIENT NORM               0.000628345566 Eh/α |
          | HOMO-LUMO GAP               0.065795570138 eV   |
           -------------------------------------------------

 * finished run on 2023/06/21 at 17:43:44.765
