   * xtb version 6.5.1 (579679a) compiled by 'ehlert@majestix' on 2022-07-11
          program call               : /lustre/hpc/kemi/ree/PhD/git/ReactivityQM/dep/xtb-6.5.1/bin/xtb --gfn 1 /lustre/hpc/kemi/ree/PhD/git/ReactivityQM/calculations/R02methylcation/reac01prodE04/conf18/R02methylcation_reac01prodE04_conf18_gfn1.xyz --opt --vfukui --chrg -2 --uhf 0 --alpb DMSO

   ID    Z sym.   atoms
    1    6 C      1, 3, 5, 6, 8-11, 13, 15, 18, 19, 22, 24
    2    8 O      2, 4, 14, 20, 23, 25
    3    7 N      7, 12, 16, 17, 21
    4    1 H      26-42

      * Solvation model:               ALPB
        Solvent                        DMSO
        Solvent mass                       7.8130E+01 g/mol
          :  Hamiltonian                  GFN1-xTB          :
 * total energy  :   -83.5795523 Eh     change       -0.1120242E-09 Eh
 * total energy  :   -83.5999182 Eh     change       -0.2036597E-01 Eh
 * total energy  :   -83.6061578 Eh     change       -0.6239557E-02 Eh
 * total energy  :   -83.6073032 Eh     change       -0.1145393E-02 Eh
 * total energy  :   -83.6081915 Eh     change       -0.8883177E-03 Eh
 * total energy  :   -83.6085899 Eh     change       -0.3983560E-03 Eh
 * total energy  :   -83.6088860 Eh     change       -0.2960901E-03 Eh
 * total energy  :   -83.6091349 Eh     change       -0.2489400E-03 Eh
 * total energy  :   -83.6093350 Eh     change       -0.2001084E-03 Eh
 * total energy  :   -83.6094830 Eh     change       -0.1480022E-03 Eh
 * total energy  :   -83.6134390 Eh     change       -0.7721218E-05 Eh
 * total energy  :   -83.6134456 Eh     change       -0.6552401E-05 Eh
 * total energy  :   -83.6134512 Eh     change       -0.5649898E-05 Eh
 * total energy  :   -83.6134566 Eh     change       -0.5360889E-05 Eh
 * total energy  :   -83.6134622 Eh     change       -0.5614274E-05 Eh
 * total energy  :   -83.6134685 Eh     change       -0.6287283E-05 Eh
 * total energy  :   -83.6134756 Eh     change       -0.7074111E-05 Eh
 * total energy  :   -83.6134831 Eh     change       -0.7550649E-05 Eh
 * total energy  :   -83.6134867 Eh     change       -0.3636230E-05 Eh
   *** GEOMETRY OPTIMIZATION CONVERGED AFTER 68 ITERATIONS ***

 final structure:
================
42
 xtb: 6.5.1 (579679a)
C            4.74879481907214       -0.90489306365699       -1.05869143442020
O            3.57553960867495       -0.32149793788969       -0.50688836965780
C            3.74023937610668        0.89488469272591        0.07186969859158
O            4.83384995410527        1.44071242167413        0.09956914675147
C            2.44199180979346        1.53053279287838        0.54002238717943
C            2.73112481123398        2.51132534116277        1.68104528700638
N            1.50039961419569        0.52110825805654        0.99617177780795
C            0.73626746827325       -0.02700398937765        0.12357038548606
C           -0.13023201572528       -1.21185416496821        0.52857755763846
C            0.49245161868456       -2.46492813596432       -0.10716996104213
C           -0.16243711210660       -1.33896157055848        2.05757624658443
N           -1.47525852292613       -0.97507963329904       -0.00621428516146
C           -2.51530787679630       -1.87118034624500        0.28538606429035
O           -2.31771235546724       -3.07213128964945        0.57587027931576
C           -3.81875351458478       -1.30027618716556        0.16151175040326
N           -4.99827640484923       -1.90637756294121        0.33450827205299
N           -5.95651660433902       -0.94685111317352        0.15950046311484
C           -5.35206448080842        0.16558936677829       -0.10254424522589
C           -5.97695145313782        1.48667082972999       -0.36185984564558
O           -4.00172709095961        0.04226341073700       -0.12433628062981
N            0.69517036146994        0.33253040693396       -1.18622130559614
C            1.17027514458589        1.60677578625915       -1.64458256295815
O            0.73650647366338        1.99693073842110       -2.76753784479298
C            2.01756663736287        2.29606313067517       -0.74808439418394
O            2.47165308069906        3.47758223738006       -0.92039281981515
H            5.16777187299447       -0.26997795186371       -1.84580107008017
H            4.46355336696043       -1.87004460020822       -1.47447869132163
H            5.50690319098464       -1.04819159312426       -0.28274609365041
H            3.10584261459757        1.97525035435883        2.55240299694584
H            1.81572471138577        3.03369748935094        1.95693095799874
H            3.47442204868414        3.24214547894346        1.36257145839579
H            1.54559485690232       -2.52216284373884        0.16913183043199
H           -0.01041518994566       -3.36756201367699        0.23449825803784
H            0.41705824362053       -2.40855547003890       -1.19264970960593
H            0.85414821290980       -1.43907866113302        2.43709905788073
H           -0.60972667854275       -0.44757811577445        2.49673021289483
H           -0.74070981541683       -2.21270582428816        2.35399238174931
H           -1.76261328268067       -0.00632785284385        0.06694526159272
H           -5.62265847161655        2.22308347745670        0.36014291895378
H           -7.05758687830039        1.39762741543895       -0.28186471615639
H           -5.71910915543034        1.84191552733204       -1.36019620158913
H           -0.01479099332744       -0.08347123471861       -1.77023181957879

          :  Hamiltonian                  GFN1-xTB          :
         :: total energy             -83.613486748035 Eh    ::
         :: gradient norm              0.000179331855 Eh/a0 ::
         :: HOMO-LUMO gap              0.035954020505 eV    ::
         :: SCC energy               -84.339191290365 Eh    ::
         :: -> Gsolv                  -0.265748452988 Eh    ::
         :: repulsion energy           0.752691076001 Eh    ::

    * Orbital Energies and Occupations

         #    Occupation            Energy/Eh            Energy/eV
      -------------------------------------------------------------
         1        2.0000           -0.8026649             -21.8416
       ...           ...                  ...                  ...
        56        2.0000           -0.4469114             -12.1611
        57        2.0000           -0.4455573             -12.1242
        58        2.0000           -0.4277504             -11.6397
        59        2.0000           -0.4252836             -11.5726
        60        2.0000           -0.4086175             -11.1190
        61        2.0000           -0.4057782             -11.0418
        62        2.0000           -0.4040481             -10.9947
        63        2.0000           -0.3982415             -10.8367
        64        2.0000           -0.3897135             -10.6046
        65        2.0000           -0.3788901             -10.3101
        66        2.0000           -0.3746752             -10.1954
        67        2.0000           -0.3454519              -9.4002
        68        1.3343           -0.2688951              -7.3170 (HOMO)
        69        0.6657           -0.2675738              -7.2811 (LUMO)
        70                         -0.2236986              -6.0871
        71                         -0.2101209              -5.7177
        72                         -0.2017607              -5.4902
        73                         -0.1413107              -3.8453
        74                         -0.1234302              -3.3587
        75                         -0.1226607              -3.3378
        76                         -0.1148227              -3.1245
        77                         -0.0959520              -2.6110
        78                         -0.0929412              -2.5291
        79                         -0.0870363              -2.3684
       ...                                ...                  ...
       134                          0.7144538              19.4413
      -------------------------------------------------------------
                  HL-Gap            0.0013213 Eh            0.0360 eV

Wiberg/Mayer (AO) data.
largest (>0.10) Wiberg bond orders for each atom

     #   Z sym  total        # sym  WBO       # sym  WBO       # sym  WBO
 ---------------------------------------------------------------------------
     1   6 C    3.897 --    27 H    0.987    28 H    0.981    26 H    0.981
                             2 O    0.921
     2   8 O    2.152 --     3 C    1.051     1 C    0.921     4 O    0.109
     3   6 C    3.778 --     4 O    1.602     2 O    1.051     5 C    0.946
     4   8 O    1.866 --     3 C    1.602     2 O    0.109
     5   6 C    3.958 --     6 C    0.990     7 N    0.980     3 C    0.946
                            24 C    0.877
     6   6 C    3.989 --     5 C    0.990    29 H    0.989    30 H    0.987
                            31 H    0.984
     7   7 N    2.937 --     8 C    1.652     5 C    0.980    21 N    0.149
     8   6 C    3.931 --     7 N    1.652    21 N    1.177     9 C    0.970
     9   6 C    3.950 --    11 C    0.992    10 C    0.985     8 C    0.970
                            12 N    0.941
    10   6 C    3.993 --    32 H    0.987    34 H    0.986     9 C    0.985
                            33 H    0.980
    11   6 C    3.993 --     9 C    0.992    36 H    0.986    35 H    0.985
                            37 H    0.984
    12   7 N    3.144 --    13 C    1.080     9 C    0.941    38 H    0.920
                            14 O    0.106
    13   6 C    3.746 --    14 O    1.443    15 C    1.157    12 N    1.080
    14   8 O    1.684 --    13 C    1.443    12 N    0.106
    15   6 C    3.696 --    16 N    1.400    13 C    1.157    20 O    0.968
    16   7 N    2.725 --    15 C    1.400    17 N    1.190
    17   7 N    2.981 --    18 C    1.627    16 N    1.190
    18   6 C    3.813 --    17 N    1.627    20 O    1.042    19 C    1.024
    19   6 C    3.994 --    18 C    1.024    40 H    0.986    39 H    0.971
                            41 H    0.970
    20   8 O    2.181 --    18 C    1.042    15 C    0.968
    21   7 N    3.325 --     8 C    1.177    22 C    0.960    42 H    0.911
                             7 N    0.149
    22   6 C    3.740 --    23 O    1.390    24 C    1.243    21 N    0.960
    23   8 O    1.599 --    22 C    1.390
    24   6 C    3.727 --    25 O    1.376    22 C    1.243     5 C    0.877
    25   8 O    1.576 --    24 C    1.376
    26   1 H    1.013 --     1 C    0.981
    27   1 H    1.016 --     1 C    0.987
    28   1 H    1.014 --     1 C    0.981
    29   1 H    1.011 --     6 C    0.989
    30   1 H    1.012 --     6 C    0.987
    31   1 H    1.026 --     6 C    0.984
    32   1 H    1.010 --    10 C    0.987
    33   1 H    1.024 --    10 C    0.980
    34   1 H    1.010 --    10 C    0.986
    35   1 H    1.020 --    11 C    0.985
    36   1 H    1.011 --    11 C    0.986
    37   1 H    1.014 --    11 C    0.984
    38   1 H    0.965 --    12 N    0.920
    39   1 H    1.000 --    19 C    0.971
    40   1 H    1.004 --    19 C    0.986
    41   1 H    1.000 --    19 C    0.970
    42   1 H    0.970 --    21 N    0.911
 ---------------------------------------------------------------------------

           -------------------------------------------------
          | TOTAL ENERGY              -83.613486748035 Eh   |
          | GRADIENT NORM               0.000179331855 Eh/α |
          | HOMO-LUMO GAP               0.035954020505 eV   |
           -------------------------------------------------

 * finished run on 2023/06/21 at 17:10:54.923
