   * xtb version 6.5.1 (579679a) compiled by 'ehlert@majestix' on 2022-07-11
          program call               : /lustre/hpc/kemi/ree/PhD/git/ReactivityQM/dep/xtb-6.5.1/bin/xtb --gfn 1 /lustre/hpc/kemi/ree/PhD/git/ReactivityQM/calculations/R02/reac01prodE14/conf16/R02_reac01prodE14_conf16_gfn1.xyz --opt --vfukui --chrg -1 --uhf 0 --alpb DMSO

   ID    Z sym.   atoms
    1    6 C      1, 3, 5, 7-10, 12, 14, 17, 18, 21, 23, 24
    2    8 O      2, 4, 13, 19, 22, 25
    3    7 N      6, 11, 15, 16, 20
    4    1 H      26-43

      * Solvation model:               ALPB
        Solvent                        DMSO
        Solvent mass                       7.8130E+01 g/mol
          :  Hamiltonian                  GFN1-xTB          :
 * total energy  :   -83.8664733 Eh     change       -0.1779199E-10 Eh
 * total energy  :   -83.8820574 Eh     change       -0.1558408E-01 Eh
 * total energy  :   -83.8880919 Eh     change       -0.6034485E-02 Eh
 * total energy  :   -83.8889514 Eh     change       -0.8594854E-03 Eh
 * total energy  :   -83.8894247 Eh     change       -0.4733007E-03 Eh
 * total energy  :   -83.8896189 Eh     change       -0.1941772E-03 Eh
 * total energy  :   -83.8897967 Eh     change       -0.1778798E-03 Eh
 * total energy  :   -83.8899562 Eh     change       -0.1595045E-03 Eh
 * total energy  :   -83.8900769 Eh     change       -0.1206663E-03 Eh
 * total energy  :   -83.8901806 Eh     change       -0.1037221E-03 Eh
 * total energy  :   -83.8908597 Eh     change       -0.1510460E-04 Eh
 * total energy  :   -83.8908693 Eh     change       -0.9556950E-05 Eh
 * total energy  :   -83.8908750 Eh     change       -0.5730723E-05 Eh
 * total energy  :   -83.8908852 Eh     change       -0.1021130E-04 Eh
 * total energy  :   -83.8908893 Eh     change       -0.4106026E-05 Eh
 * total energy  :   -83.8908997 Eh     change       -0.1044112E-04 Eh
 * total energy  :   -83.8909052 Eh     change       -0.5410479E-05 Eh
 * total energy  :   -83.8909206 Eh     change       -0.1548292E-04 Eh
 * total energy  :   -83.8909244 Eh     change       -0.3742782E-05 Eh
   *** GEOMETRY OPTIMIZATION CONVERGED AFTER 40 ITERATIONS ***

 final structure:
================
43
 xtb: 6.5.1 (579679a)
C           -5.81464983324501        1.34146706918102        2.00868668101673
O           -4.80350940960805        1.19185294692417        1.03006427334082
C           -3.76888470522847        0.32475927795554        1.37345457410468
O           -3.79058750913959       -0.22596534757331        2.48511205451696
C           -2.77860065279952        0.18043455148284        0.37959027098459
N           -1.69911957547461       -0.58215211977663        0.71767830845357
C           -0.71135129802645       -0.78107656103659       -0.07183715623746
C            0.48656442799927       -1.60753342818369        0.33467746398248
C            0.52621584666803       -2.92605027487939       -0.45404453641236
C            0.43813763100139       -1.87725799817796        1.84213515529545
N            1.68955553746925       -0.81315157278894        0.01490817226509
C            2.95085837502074       -1.22246908534062        0.22358532158389
O            3.29220387052766       -2.30244574437339        0.67888187705948
C            3.92204639469316       -0.16317284588473       -0.17211667059613
N            3.62492700576961        1.03486794871831       -0.57618555703033
N            4.80572555562424        1.67270852924770       -0.81948182345621
C            5.74695975998804        0.82178647162790       -0.54782045574646
C            7.20773544631877        1.02678865542784       -0.66111965168470
O            5.25406367840926       -0.35461056248628       -0.13194535826712
N           -0.70647603813131       -0.27627243480607       -1.39870386023901
C           -1.75043618098254        0.39449426157195       -1.92117160850644
O           -1.83340178727585        0.62125564063602       -3.12855849251037
C           -2.83258246915469        0.90356367744777       -0.95597302653281
C           -2.60726274841019        2.42710657642564       -0.79558938731260
O           -4.08508764474608        0.68529866805463       -1.60679229169899
H           -6.31023326578623        0.38536871501987        2.21767214905328
H           -5.40391528860916        1.73248192688523        2.94759339315887
H           -6.54595507708742        2.04797636587706        1.61363473972771
H           -0.39866172848767       -3.47508776182869       -0.28216261009003
H            1.36644785264593       -3.53971843815630       -0.13441447017889
H            0.62434320882633       -2.72415242392911       -1.51914098118230
H            1.27581489279753       -2.50211790837790        2.14541752707093
H            0.47548326445552       -0.93534697980012        2.38865617859952
H           -0.49457809902970       -2.38572789993820        2.08464465705066
H            1.55320237906834        0.11394033859521       -0.36162643482314
H            7.41149300843562        2.05767924139334       -0.93970599191782
H            7.61892704920309        0.35948296594984       -1.41875674485134
H            7.69324158924006        0.79956045554776        0.28750374750936
H           -0.01093404097595       -0.60829743505986       -2.04567423750574
H           -3.41821821009871        2.85457059839584       -0.20891315227082
H           -2.58775461344409        2.90251043823177       -1.77547504141655
H           -1.66085224864017        2.60934904116680       -0.28934387348358
H           -3.95089934977697        0.81330446063635       -2.55734013081937

          :  Hamiltonian                  GFN1-xTB          :
         :: total energy             -83.890924382025 Eh    ::
         :: gradient norm              0.000603975327 Eh/a0 ::
         :: HOMO-LUMO gap              0.790662681641 eV    ::
         :: SCC energy               -84.655818581125 Eh    ::
         :: -> Gsolv                  -0.118275927161 Eh    ::
         :: repulsion energy           0.791180880799 Eh    ::

    * Orbital Energies and Occupations

         #    Occupation            Energy/Eh            Energy/eV
      -------------------------------------------------------------
         1        2.0000           -0.8586113             -23.3640
       ...           ...                  ...                  ...
        56        2.0000           -0.4752415             -12.9320
        57        2.0000           -0.4697087             -12.7814
        58        2.0000           -0.4565339             -12.4229
        59        2.0000           -0.4537637             -12.3475
        60        2.0000           -0.4489402             -12.2163
        61        2.0000           -0.4448560             -12.1051
        62        2.0000           -0.4441501             -12.0859
        63        2.0000           -0.4361004             -11.8669
        64        2.0000           -0.4304115             -11.7121
        65        2.0000           -0.4199523             -11.4275
        66        2.0000           -0.4056461             -11.0382
        67        2.0000           -0.3903881             -10.6230
        68        2.0000           -0.3312576              -9.0140 (HOMO)
        69        0.0000           -0.3022013              -8.2233 (LUMO)
        70                         -0.2524892              -6.8706
        71                         -0.2463172              -6.7026
        72                         -0.2042437              -5.5578
        73                         -0.1908498              -5.1933
        74                         -0.1437666              -3.9121
        75                         -0.1403994              -3.8205
        76                         -0.1155100              -3.1432
        77                         -0.1143223              -3.1109
        78                         -0.1092830              -2.9737
        79                         -0.0982939              -2.6747
       ...                                ...                  ...
       136                          0.7313250              19.9004
      -------------------------------------------------------------
                  HL-Gap            0.0290563 Eh            0.7907 eV

Wiberg/Mayer (AO) data.
largest (>0.10) Wiberg bond orders for each atom

     #   Z sym  total        # sym  WBO       # sym  WBO       # sym  WBO
 ---------------------------------------------------------------------------
     1   6 C    3.913 --    28 H    0.987    26 H    0.981    27 H    0.981
                             2 O    0.942
     2   8 O    2.102 --     3 C    0.964     1 C    0.942
     3   6 C    3.866 --     4 O    1.483     5 C    1.291     2 O    0.964
     4   8 O    1.785 --     3 C    1.483     5 C    0.107
     5   6 C    3.854 --     3 C    1.291     6 N    1.214    23 C    0.972
                             7 C    0.115     4 O    0.107
     6   7 N    3.058 --     7 C    1.621     5 C    1.214
     7   6 C    3.898 --     6 N    1.621     8 C    0.983    20 N    0.978
                             5 C    0.115
     8   6 C    3.926 --    10 C    0.994     9 C    0.983     7 C    0.983
                            11 N    0.902
     9   6 C    3.990 --    29 H    0.986    31 H    0.984     8 C    0.983
                            30 H    0.981
    10   6 C    3.994 --     8 C    0.994    33 H    0.986    32 H    0.984
                            34 H    0.984
    11   7 N    3.361 --    12 C    1.279     8 C    0.902    35 H    0.898
                            13 O    0.184
    12   6 C    3.921 --    13 O    1.579    11 N    1.279    14 C    0.982
    13   8 O    1.898 --    12 C    1.579    11 N    0.184
    14   6 C    3.871 --    15 N    1.616    19 O    1.063    12 C    0.982
    15   7 N    3.014 --    14 C    1.616    16 N    1.194
    16   7 N    2.980 --    17 C    1.611    15 N    1.194
    17   6 C    3.873 --    16 N    1.611    19 O    1.081    18 C    1.031
    18   6 C    3.987 --    17 C    1.031    36 H    0.983    38 H    0.966
                            37 H    0.962
    19   8 O    2.327 --    17 C    1.081    14 C    1.063
    20   7 N    3.389 --    21 C    1.245     7 C    0.978    39 H    0.901
                            22 O    0.141
    21   6 C    3.883 --    22 O    1.565    20 N    1.245    23 C    0.937
    22   8 O    1.864 --    21 C    1.565    20 N    0.141
    23   6 C    3.912 --     5 C    0.972    24 C    0.962    25 O    0.938
                            21 C    0.937
    24   6 C    3.996 --    42 H    0.988    41 H    0.986    40 H    0.983
                            23 C    0.962
    25   8 O    1.885 --    23 C    0.938    43 H    0.858
    26   1 H    1.018 --     1 C    0.981
    27   1 H    1.019 --     1 C    0.981
    28   1 H    1.018 --     1 C    0.987
    29   1 H    1.005 --     9 C    0.986
    30   1 H    1.011 --     9 C    0.981
    31   1 H    1.004 --     9 C    0.984
    32   1 H    1.011 --    10 C    0.984
    33   1 H    1.010 --    10 C    0.986
    34   1 H    1.015 --    10 C    0.984
    35   1 H    0.961 --    11 N    0.898
    36   1 H    0.999 --    18 C    0.983
    37   1 H    0.997 --    18 C    0.962
    38   1 H    0.997 --    18 C    0.966
    39   1 H    0.948 --    20 N    0.901
    40   1 H    1.020 --    24 C    0.983
    41   1 H    1.009 --    24 C    0.986
    42   1 H    1.011 --    24 C    0.988
    43   1 H    0.894 --    25 O    0.858
 ---------------------------------------------------------------------------

           -------------------------------------------------
          | TOTAL ENERGY              -83.890924382025 Eh   |
          | GRADIENT NORM               0.000603975327 Eh/α |
          | HOMO-LUMO GAP               0.790662681641 eV   |
           -------------------------------------------------

 * finished run on 2023/06/20 at 15:16:02.544
