   * xtb version 6.5.1 (579679a) compiled by 'ehlert@majestix' on 2022-07-11
          program call               : /lustre/hpc/kemi/ree/PhD/git/ReactivityQM/dep/xtb-6.5.1/bin/xtb --gfn 1 /lustre/hpc/kemi/ree/PhD/git/ReactivityQM/calculations/RaltegravirCLI/reac02prodE11/conf05/RaltegravirCLI_reac02prodE11_conf05_gfn1.xyz --opt --vfukui --chrg -1 --uhf 0 --alpb DMSO

   ID    Z sym.   atoms
    1    6 C      1, 3-6, 9, 10, 13-17, 19-21, 23, 24
    2    7 N      2, 7, 8, 12
    3    8 O      11, 22, 25
    4    9 F      18
    5    1 H      26-47

      * Solvation model:               ALPB
        Solvent                        DMSO
        Solvent mass                       7.8130E+01 g/mol
          :  Hamiltonian                  GFN1-xTB          :
 * total energy  :   -80.1936190 Eh     change       -0.1421085E-10 Eh
 * total energy  :   -80.2028707 Eh     change       -0.9251654E-02 Eh
 * total energy  :   -80.2059042 Eh     change       -0.3033490E-02 Eh
 * total energy  :   -80.2068679 Eh     change       -0.9637531E-03 Eh
 * total energy  :   -80.2082898 Eh     change       -0.1421859E-02 Eh
 * total energy  :   -80.2103374 Eh     change       -0.2047582E-02 Eh
 * total energy  :   -80.2087952 Eh     change        0.1542230E-02 Eh
 * total energy  :   -80.2143293 Eh     change       -0.5534133E-02 Eh
 * total energy  :   -80.2169978 Eh     change       -0.2668467E-02 Eh
 * total energy  :   -80.2212859 Eh     change       -0.4288127E-02 Eh
 * total energy  :   -80.2340981 Eh     change       -0.9660970E-04 Eh
 * total energy  :   -80.2341769 Eh     change       -0.7872341E-04 Eh
 * total energy  :   -80.2342422 Eh     change       -0.6536541E-04 Eh
 * total energy  :   -80.2342776 Eh     change       -0.3539668E-04 Eh
 * total energy  :   -80.2342928 Eh     change       -0.1516743E-04 Eh
 * total energy  :   -80.2343058 Eh     change       -0.1297728E-04 Eh
 * total energy  :   -80.2343142 Eh     change       -0.8441569E-05 Eh
 * total energy  :   -80.2343195 Eh     change       -0.5252996E-05 Eh
 * total energy  :   -80.2343226 Eh     change       -0.3126618E-05 Eh
   *** GEOMETRY OPTIMIZATION CONVERGED AFTER 37 ITERATIONS ***

 final structure:
================
47
 xtb: 6.5.1 (579679a)
C           -3.54096349548973        0.11312904438184        1.65935323196815
N           -2.28490580919226        0.29330369557673        0.93555898390464
C           -2.10715729435516       -0.14071993601981       -0.38250448339460
C           -3.12212637128500       -1.05098428854124       -1.07561384000293
C           -2.96980756196444       -2.48849160452485       -0.55392007604457
C           -2.84764927776932       -1.04046114471877       -2.59067143866342
N           -4.49665120280668       -0.60254691227417       -0.83669961435347
N           -1.02618453388859        0.08278763938082       -1.03300844336442
C            0.05451292254352        0.78633742285553       -0.45592135167628
C            1.30764113850047        0.67000496559634       -1.17586589455821
O            1.47605140965948       -0.04842281560725       -2.17481515927596
N            2.34121501956061        1.47314122314988       -0.72242294012369
C            3.69769163744518        1.19318143277158       -1.16496643138642
C            4.32033022958687        0.08828430155177       -0.33526981421840
C            4.00700184216557       -1.24593630060332       -0.59279567446253
C            4.54171719945660       -2.26219419210332        0.18569309245551
C            5.39086834963460       -1.91710166326944        1.22172944164324
F            5.91514853298495       -2.89859781457434        1.98207134347095
C            5.72858700165397       -0.60709447281696        1.50480829025095
C            5.18167554200879        0.39611661879640        0.71526881460603
C           -0.12578061440645        1.46266957836669        0.74028204852428
O            0.73005858147692        2.03877330906226        1.46430835914236
C           -1.58765849740560        1.53997088225452        1.25751704585540
C           -2.28606299895706        2.76064734489855        0.61359865714244
O           -1.53421692605833        1.71291590709750        2.65143091883252
H           -4.33346095147449        0.76740812572071        1.28249775558380
H           -3.87625456039920       -0.91854917225514        1.57839953318618
H           -3.36764085435174        0.33664124072037        2.71400236595894
H           -1.94372699062153       -2.82813517510164       -0.69729200473332
H           -3.21313914607898       -2.55192165510052        0.50579936730770
H           -3.63791790534200       -3.15500678394490       -1.09915807680446
H           -3.58548810002547       -1.65703190627585       -3.10210425224467
H           -1.85034776528837       -1.42768694292506       -2.80103849394542
H           -2.91223071454836       -0.02232819007987       -2.97383349103148
H           -5.13677454506028       -1.31074041307002       -1.16613996378255
H           -4.67719029141749        0.23518476544293       -1.37619260462655
H            2.26489275118730        1.83537823026125        0.22270056016341
H            4.28832312709099        2.10954787156813       -1.07364880177103
H            3.66379662348121        0.90054901908052       -2.22034885951983
H            3.34095317506969       -1.49243290753513       -1.41356166319541
H            4.31252141370383       -3.30272916250637       -0.00607489566596
H            6.40273590206967       -0.37956778321669        2.31904706112830
H            5.43807303037141        1.42923051134437        0.91908951388278
H           -0.60085170164276        1.95586999615036        2.83939465997014
H           -1.68532226812357        3.64795761274204        0.80653839347313
H           -2.38102030231712        2.61441818405769       -0.46091079759500
H           -3.27326274937965        2.90523131423335        1.04832562798466

          :  Hamiltonian                  GFN1-xTB          :
         :: total energy             -80.234322589756 Eh    ::
         :: gradient norm              0.000815823712 Eh/a0 ::
         :: HOMO-LUMO gap              1.916098504870 eV    ::
         :: SCC energy               -81.088279786440 Eh    ::
         :: -> Gsolv                  -0.103786508615 Eh    ::
         :: repulsion energy           0.885016572134 Eh    ::

    * Orbital Energies and Occupations

         #    Occupation            Energy/Eh            Energy/eV
      -------------------------------------------------------------
         1        2.0000           -0.8538411             -23.2342
       ...           ...                  ...                  ...
        56        2.0000           -0.4605240             -12.5315
        57        2.0000           -0.4568108             -12.4305
        58        2.0000           -0.4445042             -12.0956
        59        2.0000           -0.4402477             -11.9797
        60        2.0000           -0.4387334             -11.9385
        61        2.0000           -0.4250388             -11.5659
        62        2.0000           -0.4088219             -11.1246
        63        2.0000           -0.4003692             -10.8946
        64        2.0000           -0.3937641             -10.7149
        65        2.0000           -0.3927564             -10.6874
        66        2.0000           -0.3771496             -10.2628
        67        2.0000           -0.3664087              -9.9705
        68        2.0000           -0.3310757              -9.0090 (HOMO)
        69                         -0.2606604              -7.0929 (LUMO)
        70                         -0.2530241              -6.8851
        71                         -0.2258465              -6.1456
        72                         -0.2073025              -5.6410
        73                         -0.1325631              -3.6072
        74                         -0.1148435              -3.1250
        75                         -0.1093194              -2.9747
        76                         -0.1061639              -2.8889
        77                         -0.1038448              -2.8258
        78                         -0.1025553              -2.7907
        79                         -0.0960424              -2.6134
       ...                                ...                  ...
       144                          0.7025053              19.1161
      -------------------------------------------------------------
                  HL-Gap            0.0704153 Eh            1.9161 eV

Wiberg/Mayer (AO) data.
largest (>0.10) Wiberg bond orders for each atom

     #   Z sym  total        # sym  WBO       # sym  WBO       # sym  WBO
 ---------------------------------------------------------------------------
     1   6 C    3.965 --    28 H    0.983    27 H    0.982    26 H    0.980
                             2 N    0.959
     2   7 N    3.242 --     3 C    1.089     1 C    0.959    23 C    0.931
                             8 N    0.139
     3   6 C    3.941 --     8 N    1.673     2 N    1.089     4 C    0.971
     4   6 C    3.963 --     6 C    0.991     5 C    0.988     7 N    0.976
                             3 C    0.971
     5   6 C    3.995 --     4 C    0.988    29 H    0.986    31 H    0.985
                            30 H    0.980
     6   6 C    3.996 --     4 C    0.991    32 H    0.987    34 H    0.985
                            33 H    0.983
     7   7 N    2.978 --     4 C    0.976    36 H    0.948    35 H    0.948
     8   7 N    3.015 --     3 C    1.673     9 C    1.058     2 N    0.139
     9   6 C    3.900 --    21 C    1.394    10 C    1.139     8 N    1.058
                            22 O    0.126
    10   6 C    3.900 --    11 O    1.503     9 C    1.139    12 N    1.137
    11   8 O    1.813 --    10 C    1.503    12 N    0.116
    12   7 N    3.229 --    10 C    1.137    13 C    0.962    37 H    0.891
                            11 O    0.116
    13   6 C    3.969 --    14 C    0.994    38 H    0.979    39 H    0.971
                            12 N    0.962
    14   6 C    3.987 --    20 C    1.421    15 C    1.412    13 C    0.994
    15   6 C    3.992 --    16 C    1.447    14 C    1.412    40 H    0.968
                            19 C    0.111
    16   6 C    3.992 --    15 C    1.447    17 C    1.399    41 H    0.971
                            20 C    0.109
    17   6 C    3.856 --    19 C    1.405    16 C    1.399    18 F    0.915
    18   9 F    1.039 --    17 C    0.915
    19   6 C    3.992 --    20 C    1.438    17 C    1.405    42 H    0.970
                            15 C    0.111
    20   6 C    3.994 --    19 C    1.438    14 C    1.421    43 H    0.972
                            16 C    0.109
    21   6 C    3.934 --    22 O    1.439     9 C    1.394    23 C    0.915
    22   8 O    1.850 --    21 C    1.439     9 C    0.126
    23   6 C    3.883 --    24 C    0.966    25 O    0.964     2 N    0.931
                            21 C    0.915
    24   6 C    3.994 --    46 H    0.987    45 H    0.986    47 H    0.984
                            23 C    0.966
    25   8 O    1.898 --    23 C    0.964    44 H    0.821
    26   1 H    1.024 --     1 C    0.980
    27   1 H    1.029 --     1 C    0.982
    28   1 H    1.021 --     1 C    0.983
    29   1 H    1.008 --     5 C    0.986
    30   1 H    1.009 --     5 C    0.980
    31   1 H    1.003 --     5 C    0.985
    32   1 H    1.007 --     6 C    0.987
    33   1 H    1.024 --     6 C    0.983
    34   1 H    1.015 --     6 C    0.985
    35   1 H    0.963 --     7 N    0.948
    36   1 H    0.966 --     7 N    0.948
    37   1 H    0.969 --    12 N    0.891
    38   1 H    1.010 --    13 C    0.979
    39   1 H    1.020 --    13 C    0.971
    40   1 H    1.017 --    15 C    0.968
    41   1 H    1.000 --    16 C    0.971
    42   1 H    0.999 --    19 C    0.970
    43   1 H    1.001 --    20 C    0.972
    44   1 H    0.890 --    25 O    0.821
    45   1 H    1.009 --    24 C    0.986
    46   1 H    1.007 --    24 C    0.987
    47   1 H    1.007 --    24 C    0.984
 ---------------------------------------------------------------------------

           -------------------------------------------------
          | TOTAL ENERGY              -80.234322589756 Eh   |
          | GRADIENT NORM               0.000815823712 Eh/α |
          | HOMO-LUMO GAP               1.916098504870 eV   |
           -------------------------------------------------

 * finished run on 2023/06/20 at 15:13:36.305
