   * xtb version 6.5.1 (579679a) compiled by 'ehlert@majestix' on 2022-07-11
          program call               : /lustre/hpc/kemi/ree/PhD/git/ReactivityQM/dep/xtb-6.5.1/bin/xtb --gfn 1 /lustre/hpc/kemi/ree/PhD/git/ReactivityQM/calculations/R03/reac02prodN17/conf11/R03_reac02prodN17_conf11_gfn1.xyz --opt --vfukui --chrg 1 --uhf 0 --alpb DMSO

   ID    Z sym.   atoms
    1    6 C      1, 3, 5, 7-10, 12, 13, 15, 18, 19, 22, 23, 25
    2    8 O      2, 4, 14, 20, 24, 26
    3    7 N      6, 11, 16, 17, 21
    4    1 H      27-46

      * Solvation model:               ALPB
        Solvent                        DMSO
        Solvent mass                       7.8130E+01 g/mol
          :  Hamiltonian                  GFN1-xTB          :
 * total energy  :   -86.3076800 Eh     change       -0.1745093E-10 Eh
 * total energy  :   -86.3219303 Eh     change       -0.1425024E-01 Eh
 * total energy  :   -86.3277557 Eh     change       -0.5825393E-02 Eh
 * total energy  :   -86.3292507 Eh     change       -0.1495054E-02 Eh
 * total energy  :   -86.3301669 Eh     change       -0.9162243E-03 Eh
 * total energy  :   -86.3306394 Eh     change       -0.4724341E-03 Eh
 * total energy  :   -86.3310238 Eh     change       -0.3844304E-03 Eh
 * total energy  :   -86.3313823 Eh     change       -0.3584624E-03 Eh
 * total energy  :   -86.3316910 Eh     change       -0.3087430E-03 Eh
 * total energy  :   -86.3319504 Eh     change       -0.2593737E-03 Eh
 * total energy  :   -86.3339821 Eh     change       -0.1805116E-04 Eh
 * total energy  :   -86.3340059 Eh     change       -0.2374753E-04 Eh
 * total energy  :   -86.3340218 Eh     change       -0.1597621E-04 Eh
 * total energy  :   -86.3340296 Eh     change       -0.7771641E-05 Eh
 * total energy  :   -86.3340433 Eh     change       -0.1367126E-04 Eh
 * total energy  :   -86.3340509 Eh     change       -0.7600148E-05 Eh
 * total energy  :   -86.3340578 Eh     change       -0.6949276E-05 Eh
 * total energy  :   -86.3340640 Eh     change       -0.6148843E-05 Eh
 * total energy  :   -86.3340667 Eh     change       -0.2754293E-05 Eh
   *** GEOMETRY OPTIMIZATION CONVERGED AFTER 38 ITERATIONS ***

 final structure:
================
46
 xtb: 6.5.1 (579679a)
C            3.65704791184266        1.62913580570982        3.76944151255453
O            3.58259604723462        0.95375733469906        2.50749588909493
C            2.39908018363250        0.93192901247427        1.91220579835290
O            1.39986833905488        1.43976725137060        2.36990533712698
C            2.40391226728150        0.21678571053136        0.60194988130791
N            1.16934373783397        0.18293486152105        0.01242781979333
C            0.96039624270054       -0.37430759372160       -1.13634609716564
C           -0.50499225065265       -0.35036921856846       -1.57718370274104
C           -0.79280160506357       -0.08354160619104       -3.05025163019844
C           -1.16600011345673       -1.64664869641759       -1.09515934827686
N           -1.09110565011788        0.78769926174839       -0.74846242748256
C           -0.75888647051748        2.14739211823035       -1.24771272911975
C           -2.57690553639376        0.68776188421265       -0.56355900252031
O           -3.31074177349593        0.94967317449052       -1.46331377020546
C           -2.88011351603259        0.29339728706247        0.78878747715937
N           -1.99844557597684        0.04520732950242        1.72676097341103
N           -2.68065352937573       -0.29662196284692        2.82438289925634
C           -3.95565653366551       -0.24443346385103        2.51398475021930
C           -5.10535039378071       -0.53134536652539        3.39058461101942
O           -4.13332602792330        0.12202611290341        1.24606612306900
N            1.95493162449889       -1.00732166480691       -1.82358427763606
C            1.76112597065445       -1.71086796062119       -3.09328730028123
C            3.25684741294978       -1.01601436842582       -1.33029683338077
O            4.18221525285934       -1.54578262755691       -1.92598829303693
C            3.46030979204936       -0.36110789377209       -0.04041114760432
O            4.70825904196864       -0.38678760210311        0.42252766096666
H            3.31490492094327        2.66077228003579        3.66158270491025
H            4.70158276717983        1.60352942769979        4.07391607619797
H            3.03285789678003        1.11507091363310        4.50402649844579
H           -1.80876439287019        0.29358859712206       -3.15738935507692
H           -0.72788703956036       -1.00820093593991       -3.61750650517702
H           -0.09781471074710        0.64184831003748       -3.46717599039787
H           -1.07812613654168       -1.73249569343303       -0.01277306078322
H           -2.21691849126541       -1.66697136207859       -1.37798234728025
H           -0.66798252473828       -2.49823001153273       -1.55416885850930
H           -0.61200105426351        0.68590311098406        0.17579376656083
H            0.31003885401858        2.18271698229055       -1.43599480749940
H           -1.32502707729977        2.34699802414076       -2.15227405716074
H           -1.03111822707871        2.85502553058894       -0.46776575449023
H           -4.75410915764132       -0.88512750121938        4.35692212700684
H           -5.69922493897434        0.37402644881150        3.52414863674002
H           -5.74451290118210       -1.28310151643410        2.92727434088545
H            1.66308678710046       -0.99004841591019       -3.90243796479752
H            2.64154356938214       -2.32938797525822       -3.26541937297712
H            0.88065673919627       -2.34297276039342       -3.03515909918399
H            5.27786026945211       -0.85525957219658       -0.21799415108162

          :  Hamiltonian                  GFN1-xTB          :
         :: total energy             -86.334066744007 Eh    ::
         :: gradient norm              0.000479246446 Eh/a0 ::
         :: HOMO-LUMO gap              1.727130505988 eV    ::
         :: SCC energy               -87.162957080249 Eh    ::
         :: -> Gsolv                  -0.107065139560 Eh    ::
         :: repulsion energy           0.860444987458 Eh    ::

    * Orbital Energies and Occupations

         #    Occupation            Energy/Eh            Energy/eV
      -------------------------------------------------------------
         1        2.0000           -0.9045357             -24.6137
       ...           ...                  ...                  ...
        58        2.0000           -0.5380889             -14.6421
        59        2.0000           -0.5313382             -14.4584
        60        2.0000           -0.5238885             -14.2557
        61        2.0000           -0.5223616             -14.2142
        62        2.0000           -0.5185913             -14.1116
        63        2.0000           -0.5060612             -13.7706
        64        2.0000           -0.4997786             -13.5997
        65        2.0000           -0.4950769             -13.4717
        66        2.0000           -0.4940052             -13.4426
        67        2.0000           -0.4916228             -13.3777
        68        2.0000           -0.4823112             -13.1244
        69        2.0000           -0.4702181             -12.7953
        70        2.0000           -0.4485986             -12.2070 (HOMO)
        71                         -0.3851277             -10.4799 (LUMO)
        72                         -0.3397427              -9.2449
        73                         -0.3101064              -8.4384
        74                         -0.2932618              -7.9801
        75                         -0.2601775              -7.0798
        76                         -0.2557331              -6.9589
        77                         -0.1758367              -4.7848
        78                         -0.1719102              -4.6779
        79                         -0.1666707              -4.5353
        80                         -0.1575584              -4.2874
        81                         -0.1497822              -4.0758
       ...                                ...                  ...
       144                          0.7214260              19.6310
      -------------------------------------------------------------
                  HL-Gap            0.0634709 Eh            1.7271 eV

Wiberg/Mayer (AO) data.
largest (>0.10) Wiberg bond orders for each atom

     #   Z sym  total        # sym  WBO       # sym  WBO       # sym  WBO
 ---------------------------------------------------------------------------
     1   6 C    3.865 --    28 H    0.986    27 H    0.979    29 H    0.979
                             2 O    0.890
     2   8 O    2.214 --     3 C    1.131     1 C    0.890     4 O    0.137
     3   6 C    3.855 --     4 O    1.652     2 O    1.131     5 C    0.994
     4   8 O    1.920 --     3 C    1.652     2 O    0.137
     5   6 C    3.955 --    25 C    1.496     6 N    1.172     3 C    0.994
     6   7 N    3.085 --     7 C    1.560     5 C    1.172
     7   6 C    3.941 --     6 N    1.560    21 N    1.193     8 C    0.974
     8   6 C    3.892 --     9 C    1.001    10 C    0.985     7 C    0.974
                            11 N    0.856
     9   6 C    3.980 --     8 C    1.001    32 H    0.981    31 H    0.974
                            30 H    0.972
    10   6 C    3.982 --     8 C    0.985    33 H    0.981    34 H    0.976
                            35 H    0.974
    11   7 N    3.591 --    12 C    0.900    13 C    0.866     8 C    0.856
                            36 H    0.829
    12   6 C    3.886 --    38 H    0.981    39 H    0.980    37 H    0.980
                            11 N    0.900
    13   6 C    3.881 --    14 O    1.788    15 C    1.084    11 N    0.866
    14   8 O    2.065 --    13 C    1.788
    15   6 C    3.889 --    16 N    1.514    13 C    1.084    20 O    1.058
    16   7 N    3.049 --    15 C    1.514    17 N    1.288
    17   7 N    2.991 --    18 C    1.511    16 N    1.288
    18   6 C    3.851 --    17 N    1.511    20 O    1.115    19 C    1.042
    19   6 C    3.977 --    18 C    1.042    40 H    0.979    42 H    0.955
                            41 H    0.950
    20   8 O    2.357 --    18 C    1.115    15 C    1.058
    21   7 N    3.513 --     7 C    1.193    23 C    1.112    22 C    0.921
                            24 O    0.132
    22   6 C    3.910 --    45 H    0.977    43 H    0.975    44 H    0.970
                            21 N    0.921
    23   6 C    3.910 --    24 O    1.584    21 N    1.112    25 C    1.064
    24   8 O    1.928 --    23 C    1.584    21 N    0.132
    25   6 C    3.923 --     5 C    1.496    26 O    1.124    23 C    1.064
    26   8 O    2.099 --    25 C    1.124    46 H    0.798
    27   1 H    1.006 --     1 C    0.979
    28   1 H    1.009 --     1 C    0.986
    29   1 H    1.006 --     1 C    0.979
    30   1 H    0.999 --     9 C    0.972
    31   1 H    0.998 --     9 C    0.974
    32   1 H    0.996 --     9 C    0.981
    33   1 H    1.002 --    10 C    0.981
    34   1 H    0.993 --    10 C    0.976
    35   1 H    0.996 --    10 C    0.974
    36   1 H    0.973 --    11 N    0.829
    37   1 H    0.997 --    12 C    0.980
    38   1 H    0.996 --    12 C    0.981
    39   1 H    0.990 --    12 C    0.980
    40   1 H    0.994 --    19 C    0.979
    41   1 H    0.990 --    19 C    0.950
    42   1 H    0.991 --    19 C    0.955
    43   1 H    0.998 --    22 C    0.975
    44   1 H    1.002 --    22 C    0.970
    45   1 H    1.001 --    22 C    0.977
    46   1 H    0.839 --    26 O    0.798
 ---------------------------------------------------------------------------

           -------------------------------------------------
          | TOTAL ENERGY              -86.334066744007 Eh   |
          | GRADIENT NORM               0.000479246446 Eh/α |
          | HOMO-LUMO GAP               1.727130505988 eV   |
           -------------------------------------------------

 * finished run on 2023/06/20 at 15:54:12.845
