   * xtb version 6.5.1 (579679a) compiled by 'ehlert@majestix' on 2022-07-11
          program call               : /lustre/hpc/kemi/ree/PhD/git/ReactivityQM/dep/xtb-6.5.1/bin/xtb --gfn 1 /lustre/hpc/kemi/ree/PhD/git/ReactivityQM/calculations/R01/reac02prodE01/conf06/R01_reac02prodE01_conf06_gfn1.xyz --opt --vfukui --chrg -1 --uhf 0 --alpb DMSO

   ID    Z sym.   atoms
    1    6 C      1, 3, 4, 6, 8-11, 14, 16
    2    8 O      2, 5, 15, 17
    3    7 N      7, 12, 13
    4    1 H      18-33

      * Solvation model:               ALPB
        Solvent                        DMSO
        Solvent mass                       7.8130E+01 g/mol
          :  Hamiltonian                  GFN1-xTB          :
 * total energy  :   -58.5384400 Eh     change       -0.5449863E-11 Eh
 * total energy  :   -58.5458894 Eh     change       -0.7449404E-02 Eh
 * total energy  :   -58.5486241 Eh     change       -0.2734682E-02 Eh
 * total energy  :   -58.5494584 Eh     change       -0.8342945E-03 Eh
 * total energy  :   -58.5499387 Eh     change       -0.4803335E-03 Eh
 * total energy  :   -58.5502763 Eh     change       -0.3375559E-03 Eh
 * total energy  :   -58.5505249 Eh     change       -0.2486300E-03 Eh
 * total energy  :   -58.5506880 Eh     change       -0.1630824E-03 Eh
 * total energy  :   -58.5507923 Eh     change       -0.1042463E-03 Eh
 * total energy  :   -58.5508554 Eh     change       -0.6319207E-04 Eh
 * total energy  :   -58.5509644 Eh     change       -0.2793626E-04 Eh
 * total energy  :   -58.5509822 Eh     change       -0.1776508E-04 Eh
 * total energy  :   -58.5510016 Eh     change       -0.1938533E-04 Eh
 * total energy  :   -58.5510297 Eh     change       -0.2814080E-04 Eh
 * total energy  :   -58.5510454 Eh     change       -0.1571127E-04 Eh
 * total energy  :   -58.5510592 Eh     change       -0.1379075E-04 Eh
 * total energy  :   -58.5510717 Eh     change       -0.1251059E-04 Eh
 * total energy  :   -58.5510785 Eh     change       -0.6800440E-05 Eh
 * total energy  :   -58.5510833 Eh     change       -0.4806687E-05 Eh
   *** GEOMETRY OPTIMIZATION CONVERGED AFTER 24 ITERATIONS ***

 final structure:
================
33
 xtb: 6.5.1 (579679a)
C           -2.73888951976701        2.08812080792184        1.74464419792309
O           -2.04821500490481        1.44321128766103        0.70794429348127
C           -2.44527089231899       -0.01606117084411        0.51240748102401
C           -3.44987085743968        0.04298606022563       -0.69669751517959
O           -2.89098732865969       -0.58836632406828        1.57624285329827
C           -1.10806783726937       -0.66490969837574       -0.04325898447993
N            0.04590379752071        0.07616444893903        0.01510162329414
C            1.16514860569463       -0.43507001870626       -0.37312646356384
C            2.45658703220307        0.35471380227318       -0.28169411585991
C            3.01049757886321        0.19995486126786        1.14138377420314
C            2.18958740187162        1.83147219414365       -0.59879459262268
N            3.41665043677304       -0.22944661359653       -1.21728803120927
N            1.26833064470585       -1.71391183948074       -0.82700228766280
C            0.18463540744451       -2.55336255192746       -0.93690164288842
O            0.29217539411370       -3.70602284250837       -1.36990381662263
C           -1.05392010909982       -1.95365753022161       -0.50251256512007
O           -2.15286084426030       -2.76110613222323       -0.60360763004905
H           -2.76275367220984        1.48302546015923        2.66503232158339
H           -2.22039849394881        3.02733891029326        1.96478974917562
H           -3.77946578844221        2.32923698958648        1.46926644928036
H           -2.99363351064762        0.53331023274733       -1.55505397208046
H           -4.32964406677159        0.60362288671445       -0.38446194462903
H           -3.75431664151622       -0.96570968345327       -0.96666512745265
H            3.92044286582245        0.78721417136304        1.25208798309404
H            3.24242802871225       -0.84632727863484        1.33790050324510
H            2.27668636834247        0.54555228395452        1.86964389121596
H            1.82168834041428        1.93473134388208       -1.61886616315373
H            1.43955887331517        2.22599194993486        0.08787553267475
H            3.10831552679001        2.40555550554728       -0.49730468377631
H            4.35125164020060        0.06232680695082       -0.97416941372831
H            3.23288598473319        0.10281857343247       -2.15405058082360
H            2.17518207267528       -2.03524528034269       -1.13686074691767
H           -1.86966243293993       -3.60815261261528       -0.98253837567270

          :  Hamiltonian                  GFN1-xTB          :
         :: total energy             -58.551083320606 Eh    ::
         :: gradient norm              0.000879556485 Eh/a0 ::
         :: HOMO-LUMO gap              2.005901883735 eV    ::
         :: SCC energy               -59.094004184974 Eh    ::
         :: -> Gsolv                  -0.127966501037 Eh    ::
         :: repulsion energy           0.561605365071 Eh    ::

    * Orbital Energies and Occupations

         #    Occupation            Energy/Eh            Energy/eV
      -------------------------------------------------------------
         1        2.0000           -0.8045058             -21.8917
       ...           ...                  ...                  ...
        36        2.0000           -0.4798017             -13.0561
        37        2.0000           -0.4751109             -12.9284
        38        2.0000           -0.4713878             -12.8271
        39        2.0000           -0.4578312             -12.4582
        40        2.0000           -0.4439029             -12.0792
        41        2.0000           -0.4354971             -11.8505
        42        2.0000           -0.4269381             -11.6176
        43        2.0000           -0.4172181             -11.3531
        44        2.0000           -0.4051712             -11.0253
        45        2.0000           -0.4011473             -10.9158
        46        2.0000           -0.3873051             -10.5391
        47        2.0000           -0.3597762              -9.7900
        48        2.0000           -0.3388740              -9.2212 (HOMO)
        49                         -0.2651584              -7.2153 (LUMO)
        50                         -0.2415008              -6.5716
        51                         -0.1344830              -3.6595
        52                         -0.1187551              -3.2315
        53                         -0.1143260              -3.1110
        54                         -0.0994644              -2.7066
        55                         -0.0951627              -2.5895
        56                         -0.0834895              -2.2719
        57                         -0.0802131              -2.1827
        58                         -0.0728594              -1.9826
        59                         -0.0670169              -1.8236
       ...                                ...                  ...
       100                          0.7045617              19.1721
      -------------------------------------------------------------
                  HL-Gap            0.0737155 Eh            2.0059 eV

Wiberg/Mayer (AO) data.
largest (>0.10) Wiberg bond orders for each atom

     #   Z sym  total        # sym  WBO       # sym  WBO       # sym  WBO
 ---------------------------------------------------------------------------
     1   6 C    3.938 --    19 H    0.984     2 O    0.981    20 H    0.980
                            18 H    0.974
     2   8 O    1.935 --     1 C    0.981     3 C    0.777
     3   6 C    3.897 --     5 O    1.256     4 C    0.926     6 C    0.885
                             2 O    0.777
     4   6 C    3.989 --    21 H    0.991    22 H    0.986    23 H    0.986
                             3 C    0.926
     5   8 O    1.542 --     3 C    1.256
     6   6 C    3.924 --    16 C    1.524     7 N    1.201     3 C    0.885
     7   7 N    3.023 --     8 C    1.576     6 C    1.201
     8   6 C    3.932 --     7 N    1.576    13 N    1.177     9 C    0.977
     9   6 C    3.966 --    11 C    0.988    12 N    0.983    10 C    0.983
                             8 C    0.977
    10   6 C    3.995 --    25 H    0.986    26 H    0.986    24 H    0.984
                             9 C    0.983
    11   6 C    3.995 --     9 C    0.988    29 H    0.987    27 H    0.985
                            28 H    0.982
    12   7 N    2.977 --     9 C    0.983    31 H    0.943    30 H    0.941
    13   7 N    3.461 --     8 C    1.177    14 C    1.125    32 H    0.880
                            15 O    0.121
    14   6 C    3.910 --    15 O    1.507    16 C    1.129    13 N    1.125
    15   8 O    1.832 --    14 C    1.507    13 N    0.121
    16   6 C    3.909 --     6 C    1.524    14 C    1.129    17 O    1.032
    17   8 O    2.023 --    16 C    1.032    33 H    0.834
    18   1 H    1.036 --     1 C    0.974
    19   1 H    1.024 --     1 C    0.984
    20   1 H    1.019 --     1 C    0.980
    21   1 H    1.015 --     4 C    0.991
    22   1 H    1.015 --     4 C    0.986
    23   1 H    1.023 --     4 C    0.986
    24   1 H    1.001 --    10 C    0.984
    25   1 H    1.005 --    10 C    0.986
    26   1 H    1.006 --    10 C    0.986
    27   1 H    1.006 --    11 C    0.985
    28   1 H    1.014 --    11 C    0.982
    29   1 H    1.004 --    11 C    0.987
    30   1 H    0.955 --    12 N    0.941
    31   1 H    0.957 --    12 N    0.943
    32   1 H    0.958 --    13 N    0.880
    33   1 H    0.873 --    17 O    0.834
 ---------------------------------------------------------------------------

           -------------------------------------------------
          | TOTAL ENERGY              -58.551083320606 Eh   |
          | GRADIENT NORM               0.000879556485 Eh/α |
          | HOMO-LUMO GAP               2.005901883735 eV   |
           -------------------------------------------------

 * finished run on 2023/06/20 at 14:57:21.321
