   * xtb version 6.5.1 (579679a) compiled by 'ehlert@majestix' on 2022-07-11
          program call               : /lustre/hpc/kemi/ree/PhD/git/ReactivityQM/dep/xtb-6.5.1/bin/xtb --gfn 1 /lustre/hpc/kemi/ree/PhD/git/ReactivityQM/calculations/R02oxygendeprot/reac01prodN08/conf03/R02oxygendeprot_reac01prodN08_conf03_gfn1.xyz --opt --vfukui --chrg 0 --uhf 0 --alpb DMSO

   ID    Z sym.   atoms
    1    6 C      1, 3, 5, 7-10, 12, 14, 17, 18, 21, 23, 25
    2    8 O      2, 4, 13, 19, 22, 24
    3    7 N      6, 11, 15, 16, 20
    4    1 H      26-42

      * Solvation model:               ALPB
        Solvent                        DMSO
        Solvent mass                       7.8130E+01 g/mol
          :  Hamiltonian                  GFN1-xTB          :
 * total energy  :   -82.9997018 Eh     change       -0.1084288E-10 Eh
 * total energy  :   -83.0129034 Eh     change       -0.1320155E-01 Eh
 * total energy  :   -83.0170285 Eh     change       -0.4125155E-02 Eh
 * total energy  :   -83.0180429 Eh     change       -0.1014362E-02 Eh
 * total energy  :   -83.0187866 Eh     change       -0.7437354E-03 Eh
 * total energy  :   -83.0192161 Eh     change       -0.4294229E-03 Eh
 * total energy  :   -83.0195464 Eh     change       -0.3302973E-03 Eh
 * total energy  :   -83.0197808 Eh     change       -0.2344401E-03 Eh
 * total energy  :   -83.0199028 Eh     change       -0.1220397E-03 Eh
 * total energy  :   -83.0199649 Eh     change       -0.6207195E-04 Eh
 * total energy  :   -83.0205174 Eh     change       -0.2231904E-04 Eh
 * total energy  :   -83.0205307 Eh     change       -0.1333570E-04 Eh
 * total energy  :   -83.0205508 Eh     change       -0.2010293E-04 Eh
 * total energy  :   -83.0205651 Eh     change       -0.1423511E-04 Eh
 * total energy  :   -83.0205783 Eh     change       -0.1325750E-04 Eh
 * total energy  :   -83.0205912 Eh     change       -0.1291807E-04 Eh
 * total energy  :   -83.0205999 Eh     change       -0.8667481E-05 Eh
 * total energy  :   -83.0206086 Eh     change       -0.8662393E-05 Eh
 * total energy  :   -83.0206120 Eh     change       -0.3479828E-05 Eh
   *** GEOMETRY OPTIMIZATION CONVERGED AFTER 36 ITERATIONS ***

 final structure:
================
42
 xtb: 6.5.1 (579679a)
C           -5.19038130521253       -1.34155613973267        1.94881528742104
O           -3.96740529276348       -1.04907236131197        1.26831584862695
C           -3.96643987698711        0.04141340932180        0.49597336166336
O           -4.93288625289344        0.75753769049862        0.37232502138036
C           -2.64760908426264        0.24168606162831       -0.17496571230858
N           -1.68640471104771       -0.68013836855605        0.14847982636350
C           -0.51771559128173       -0.59137909250614       -0.38467035193851
C            0.54467246012558       -1.62157533720629       -0.07237064621914
C            0.20871284715838       -2.34700794285526        1.23400360470863
C            0.61444244008921       -2.60203932891162       -1.25378217062228
N            1.81904785756980       -0.90808937704196        0.06562724634084
C            2.99659582440058       -1.53659632299913        0.27975130853164
O            3.16421410371218       -2.74354851657008        0.29381451139227
C            4.11428052831956       -0.58185620453938        0.48761896922074
N            5.36173946808493       -0.85566070795898        0.71091800406399
N            6.00978185298083        0.33620728851986        0.83874822516275
C            5.11806588871910        1.26505381822427        0.68631255376920
C            5.31465257818284        2.73013355380063        0.72929765248616
O            3.89673492997644        0.75146743202113        0.46243881174141
N           -0.21401619864833        0.38423803656137       -1.28729639211304
C           -1.08647579134770        1.37415759237980       -1.69214017153416
O           -0.72266675676995        2.20931825619589       -2.50666922266627
C           -2.40462820164492        1.27283905237433       -1.05774350438552
O           -3.38137585879505        2.14752981821224       -1.32182369165258
C           -3.21270527220327        3.25724236756459       -2.20420935628988
H           -5.98792184205404       -1.52639963387217        1.22484507179777
H           -5.00981807441167       -2.23292319785429        2.54617458170797
H           -5.47323634403412       -0.50466672493392        2.59195968415456
H           -0.76354212219333       -2.82812429102728        1.13983249570645
H            0.96465790554889       -3.10088240202639        1.44566442961914
H            0.17183793270732       -1.63350137974697        2.05561794705025
H           -0.37437108360934       -3.02274480921283       -1.43069059190322
H            1.30981610409576       -3.40968213709722       -1.03398355385904
H            0.94490686367500       -2.07948491673622       -2.14947588284455
H            1.78969992940653        0.08952849404141        0.19411268587035
H            4.72626804593794        3.16058215873993        1.53950462296206
H            6.36713667478611        2.95550157285827        0.88353156020049
H            4.97615757510121        3.17590964915603       -0.20561700087706
H            0.70311154390418        0.41727504866316       -1.70598218739794
H           -2.41652843261675        3.91831334574376       -1.85577518572760
H           -4.16506351938270        3.78896993167364       -2.18845028449473
H           -2.99534074231763        2.92202261451635       -3.22073040511299

          :  Hamiltonian                  GFN1-xTB          :
         :: total energy             -83.020612049242 Eh    ::
         :: gradient norm              0.000466378454 Eh/a0 ::
         :: HOMO-LUMO gap              2.757009464291 eV    ::
         :: SCC energy               -83.805017696736 Eh    ::
         :: -> Gsolv                  -0.057376986809 Eh    ::
         :: repulsion energy           0.809395918966 Eh    ::

    * Orbital Energies and Occupations

         #    Occupation            Energy/Eh            Energy/eV
      -------------------------------------------------------------
         1        2.0000           -0.8660738             -23.5671
       ...           ...                  ...                  ...
        55        2.0000           -0.5055033             -13.7554
        56        2.0000           -0.5021085             -13.6631
        57        2.0000           -0.4960231             -13.4975
        58        2.0000           -0.4849700             -13.1967
        59        2.0000           -0.4832662             -13.1503
        60        2.0000           -0.4803767             -13.0717
        61        2.0000           -0.4673403             -12.7170
        62        2.0000           -0.4619655             -12.5707
        63        2.0000           -0.4576078             -12.4521
        64        2.0000           -0.4523064             -12.3079
        65        2.0000           -0.4502593             -12.2522
        66        2.0000           -0.4472521             -12.1704
        67        2.0000           -0.4269792             -11.6187 (HOMO)
        68                         -0.3256610              -8.8617 (LUMO)
        69                         -0.3120595              -8.4916
        70                         -0.2853823              -7.7656
        71                         -0.2570871              -6.9957
        72                         -0.2406587              -6.5487
        73                         -0.1998417              -5.4380
        74                         -0.1614305              -4.3927
        75                         -0.1418919              -3.8611
        76                         -0.1374004              -3.7389
        77                         -0.1308074              -3.5595
        78                         -0.1279924              -3.4829
       ...                                ...                  ...
       134                          0.7342228              19.9792
      -------------------------------------------------------------
                  HL-Gap            0.1013182 Eh            2.7570 eV

Wiberg/Mayer (AO) data.
largest (>0.10) Wiberg bond orders for each atom

     #   Z sym  total        # sym  WBO       # sym  WBO       # sym  WBO
 ---------------------------------------------------------------------------
     1   6 C    3.873 --    27 H    0.986    28 H    0.979    26 H    0.979
                             2 O    0.899
     2   8 O    2.196 --     3 C    1.107     1 C    0.899     4 O    0.134
     3   6 C    3.852 --     4 O    1.660     2 O    1.107     5 C    1.003
     4   8 O    1.922 --     3 C    1.660     2 O    0.134
     5   6 C    3.963 --    23 C    1.478     6 N    1.186     3 C    1.003
     6   7 N    3.027 --     7 C    1.587     5 C    1.186
     7   6 C    3.931 --     6 N    1.587    20 N    1.168     8 C    0.982
     8   6 C    3.934 --     9 C    0.990     7 C    0.982    10 C    0.975
                            11 N    0.923
     9   6 C    3.988 --     8 C    0.990    31 H    0.985    29 H    0.983
                            30 H    0.982
    10   6 C    3.987 --    32 H    0.985    34 H    0.985    33 H    0.977
                             8 C    0.975
    11   7 N    3.337 --    12 C    1.246     8 C    0.923    35 H    0.893
                            13 O    0.174
    12   6 C    3.915 --    13 O    1.593    11 N    1.246    14 C    0.993
    13   8 O    1.908 --    12 C    1.593    11 N    0.174
    14   6 C    3.872 --    15 N    1.623    19 O    1.046    12 C    0.993
    15   7 N    3.000 --    14 C    1.623    16 N    1.199
    16   7 N    2.982 --    17 C    1.611    15 N    1.199
    17   6 C    3.868 --    16 N    1.611    19 O    1.071    18 C    1.032
    18   6 C    3.986 --    17 C    1.032    37 H    0.982    38 H    0.963
                            36 H    0.962
    19   8 O    2.316 --    17 C    1.071    14 C    1.046
    20   7 N    3.464 --     7 C    1.168    21 C    1.127    39 H    0.882
                            22 O    0.132
    21   6 C    3.908 --    22 O    1.579    20 N    1.127    23 C    1.065
    22   8 O    1.904 --    21 C    1.579    20 N    0.132
    23   6 C    3.919 --     5 C    1.478    24 O    1.104    21 C    1.065
    24   8 O    2.201 --    23 C    1.104    25 C    0.896
    25   6 C    3.871 --    41 H    0.984    40 H    0.979    42 H    0.978
                            24 O    0.896
    26   1 H    1.007 --     1 C    0.979
    27   1 H    1.011 --     1 C    0.986
    28   1 H    1.008 --     1 C    0.979
    29   1 H    1.010 --     9 C    0.983
    30   1 H    1.007 --     9 C    0.982
    31   1 H    1.004 --     9 C    0.985
    32   1 H    1.001 --    10 C    0.985
    33   1 H    1.010 --    10 C    0.977
    34   1 H    1.001 --    10 C    0.985
    35   1 H    0.938 --    11 N    0.893
    36   1 H    0.997 --    18 C    0.962
    37   1 H    0.998 --    18 C    0.982
    38   1 H    0.996 --    18 C    0.963
    39   1 H    0.928 --    20 N    0.882
    40   1 H    1.014 --    25 C    0.979
    41   1 H    1.012 --    25 C    0.984
    42   1 H    1.015 --    25 C    0.978
 ---------------------------------------------------------------------------

           -------------------------------------------------
          | TOTAL ENERGY              -83.020612049242 Eh   |
          | GRADIENT NORM               0.000466378454 Eh/α |
          | HOMO-LUMO GAP               2.757009464291 eV   |
           -------------------------------------------------

 * finished run on 2023/06/21 at 17:23:42.622
