   * xtb version 6.5.1 (579679a) compiled by 'ehlert@majestix' on 2022-07-11
          program call               : /lustre/hpc/kemi/ree/PhD/git/ReactivityQM/dep/xtb-6.5.1/bin/xtb --gfn 1 /lustre/hpc/kemi/ree/PhD/git/ReactivityQM/calculations/RaltegravirCLI/reac02prodE03/conf14/RaltegravirCLI_reac02prodE03_conf14_gfn1.xyz --opt --vfukui --chrg -1 --uhf 0 --alpb DMSO

   ID    Z sym.   atoms
    1    6 C      1, 3, 5, 7, 8, 11-15, 17, 18, 20-24
    2    7 N      2, 10, 19, 25
    3    8 O      4, 6, 9
    4    9 F      16
    5    1 H      26-47

      * Solvation model:               ALPB
        Solvent                        DMSO
        Solvent mass                       7.8130E+01 g/mol
          :  Hamiltonian                  GFN1-xTB          :
 * total energy  :   -80.1267535 Eh     change       -0.1563194E-12 Eh
 * total energy  :   -80.1389859 Eh     change       -0.1223246E-01 Eh
 * total energy  :   -80.1447706 Eh     change       -0.5784627E-02 Eh
 * total energy  :   -80.1468179 Eh     change       -0.2047321E-02 Eh
 * total energy  :   -80.1481169 Eh     change       -0.1299023E-02 Eh
 * total energy  :   -80.1490726 Eh     change       -0.9556635E-03 Eh
 * total energy  :   -80.1497010 Eh     change       -0.6284080E-03 Eh
 * total energy  :   -80.1503896 Eh     change       -0.6886603E-03 Eh
 * total energy  :   -80.1510573 Eh     change       -0.6676368E-03 Eh
 * total energy  :   -80.1515628 Eh     change       -0.5055148E-03 Eh
 * total energy  :   -80.1671949 Eh     change       -0.5246891E-04 Eh
 * total energy  :   -80.1672406 Eh     change       -0.4568571E-04 Eh
 * total energy  :   -80.1672747 Eh     change       -0.3407032E-04 Eh
 * total energy  :   -80.1672977 Eh     change       -0.2302184E-04 Eh
 * total energy  :   -80.1673097 Eh     change       -0.1203706E-04 Eh
 * total energy  :   -80.1673191 Eh     change       -0.9360277E-05 Eh
 * total energy  :   -80.1673242 Eh     change       -0.5120357E-05 Eh
 * total energy  :   -80.1673317 Eh     change       -0.7490491E-05 Eh
 * total energy  :   -80.1673364 Eh     change       -0.4709054E-05 Eh
   *** GEOMETRY OPTIMIZATION CONVERGED AFTER 96 ITERATIONS ***

 final structure:
================
47
 xtb: 6.5.1 (579679a)
C           -3.84844476713313       -1.81340351347662       -1.26864179288129
N           -2.49182281183624       -1.35352415488609       -0.98624572543481
C           -1.48757504233528       -2.31798394058785       -0.99083089973891
O           -1.69498838995389       -3.50869727538886       -1.40049386063489
C           -0.29884632029407       -1.90933167848024       -0.34564887345421
O            0.53373227324850       -2.93383682607976        0.06866010837425
C           -0.08857229947279       -0.56884494262382       -0.00025481730997
C            0.76917755454603       -0.01401519700314        1.00162222249250
O            0.74851770860825        1.18234642147307        1.35451740523194
N            1.64316497592053       -0.90388340785353        1.63783442865029
C            2.75841090961598       -0.33234008099898        2.38195362072802
C            3.85059123635927        0.14422802467213        1.44623612628070
C            4.85932851079589       -0.72863467690888        1.04320188226848
C            5.84978894777815       -0.31286169856922        0.16310412548273
C            5.80611211235115        0.98821438694581       -0.30232640127742
F            6.76758987038974        1.40345980108085       -1.15018327344406
C            4.81976844074693        1.88229852098841        0.07277552712008
C            3.83774498029510        1.44744654989270        0.95134402985992
N           -0.87798246991953        0.37857663317203       -0.77100216577921
C           -0.42368101743811        0.48122533276882       -2.17653280483382
C           -2.23928997035646       -0.04836087840236       -0.66919463358910
C           -3.22669521029620        0.86818190714745        0.02448847954293
C           -2.46395374497770        1.98966497472546        0.75422243533213
C           -4.18895244603568        1.51281993021780       -0.99346536978232
N           -4.04104983777318        0.11629936050696        0.99404292617431
H           -4.50804189111210       -1.59693740347462       -0.42685524909159
H           -3.82225619603237       -2.89048160880212       -1.44331800869627
H           -4.22991849228282       -1.31785117423629       -2.16356419188408
H            0.13909776199654       -3.75574419637396       -0.27794657406212
H            1.89591915120436       -1.73248715764977        1.11458288812431
H            3.14901950533627       -1.10243817076813        3.05377238251385
H            2.38281453969627        0.50222533867470        2.98328077678134
H            4.88133449116408       -1.74323157836029        1.42461580320899
H            6.64093122094425       -0.98033835399476       -0.15158644186109
H            4.82558610421005        2.89336667371382       -0.31360082662351
H            3.05120323201285        2.12909212982029        1.25733243520833
H           -0.48123825397296       -0.48023010677331       -2.70313568301718
H            0.60951445566033        0.83054850903855       -2.18477161919949
H           -1.05621982829326        1.20785000442485       -2.68814991994563
H           -1.75771547224711        1.56956672385960        1.47052409844812
H           -1.90668632283558        2.59527633108896        0.03952734808403
H           -3.16945649808455        2.62740238108485        1.28612486334294
H           -3.61832305551847        2.02161105512504       -1.76979264265617
H           -4.81812963956000        0.75716347039975       -1.46076745974276
H           -4.83357803163023        2.23929328816771       -0.49796135015066
H           -4.77877882346928        0.71586537926682        1.33477633900216
H           -3.46715215000516       -0.13856810655686        1.78911333283076

          :  Hamiltonian                  GFN1-xTB          :
         :: total energy             -80.167336409858 Eh    ::
         :: gradient norm              0.000874323084 Eh/a0 ::
         :: HOMO-LUMO gap              0.918238410479 eV    ::
         :: SCC energy               -81.011934489232 Eh    ::
         :: -> Gsolv                  -0.100838826054 Eh    ::
         :: repulsion energy           0.876603897983 Eh    ::

    * Orbital Energies and Occupations

         #    Occupation            Energy/Eh            Energy/eV
      -------------------------------------------------------------
         1        2.0000           -0.8539511             -23.2372
       ...           ...                  ...                  ...
        56        2.0000           -0.4595166             -12.5041
        57        2.0000           -0.4589117             -12.4876
        58        2.0000           -0.4506137             -12.2618
        59        2.0000           -0.4388593             -11.9420
        60        2.0000           -0.4258752             -11.5887
        61        2.0000           -0.4122400             -11.2176
        62        2.0000           -0.4067481             -11.0682
        63        2.0000           -0.3939259             -10.7193
        64        2.0000           -0.3913822             -10.6501
        65        2.0000           -0.3847401             -10.4693
        66        2.0000           -0.3668260              -9.9818
        67        2.0000           -0.3618964              -9.8477
        68        2.0000           -0.2946226              -8.0171 (HOMO)
        69                         -0.2608780              -7.0989 (LUMO)
        70                         -0.2553086              -6.9473
        71                         -0.2518629              -6.8535
        72                         -0.1724760              -4.6933
        73                         -0.1327420              -3.6121
        74                         -0.1210757              -3.2946
        75                         -0.1156868              -3.1480
        76                         -0.1043915              -2.8406
        77                         -0.1027726              -2.7966
        78                         -0.0976152              -2.6562
        79                         -0.0933952              -2.5414
       ...                                ...                  ...
       144                          0.6785991              18.4656
      -------------------------------------------------------------
                  HL-Gap            0.0337446 Eh            0.9182 eV

Wiberg/Mayer (AO) data.
largest (>0.10) Wiberg bond orders for each atom

     #   Z sym  total        # sym  WBO       # sym  WBO       # sym  WBO
 ---------------------------------------------------------------------------
     1   6 C    3.953 --    28 H    0.982    27 H    0.977    26 H    0.974
                             2 N    0.949
     2   7 N    3.503 --    21 C    1.208     3 C    1.096     1 C    0.949
                             4 O    0.112
     3   6 C    3.919 --     4 O    1.324     5 C    1.245     2 N    1.096
                            21 C    0.122
     4   8 O    1.697 --     3 C    1.324     2 N    0.112
     5   6 C    3.888 --     7 C    1.344     3 C    1.245     6 O    0.995
                            21 C    0.129
     6   8 O    1.995 --     5 C    0.995    29 H    0.832
     7   6 C    3.905 --     5 C    1.344     8 C    1.198    19 N    0.953
                            21 C    0.135
     8   6 C    3.909 --     9 O    1.471     7 C    1.198    10 N    1.091
     9   8 O    1.812 --     8 C    1.471    10 N    0.102
    10   7 N    3.197 --     8 C    1.091    11 C    0.962    30 H    0.912
                             9 O    0.102
    11   6 C    3.969 --    12 C    0.994    31 H    0.978    32 H    0.973
                            10 N    0.962
    12   6 C    3.985 --    13 C    1.418    18 C    1.413    11 C    0.994
    13   6 C    3.994 --    14 C    1.440    12 C    1.418    33 H    0.972
                            17 C    0.109
    14   6 C    3.992 --    13 C    1.440    15 C    1.404    34 H    0.970
                            18 C    0.111
    15   6 C    3.855 --    14 C    1.404    17 C    1.401    16 F    0.915
    16   9 F    1.040 --    15 C    0.915
    17   6 C    3.992 --    18 C    1.445    15 C    1.401    35 H    0.971
                            13 C    0.109
    18   6 C    3.991 --    17 C    1.445    12 C    1.413    36 H    0.968
                            14 C    0.111
    19   7 N    3.045 --    21 C    0.988    20 C    0.961     7 C    0.953
    20   6 C    3.986 --    39 H    0.989    38 H    0.988    37 H    0.982
                            19 N    0.961
    21   6 C    3.850 --     2 N    1.208    22 C    0.992    19 N    0.988
                             7 C    0.135     5 C    0.129     3 C    0.122
    22   6 C    3.963 --    21 C    0.992    23 C    0.989    24 C    0.982
                            25 N    0.966
    23   6 C    3.995 --    22 C    0.989    42 H    0.987    41 H    0.984
                            40 H    0.981
    24   6 C    3.990 --    43 H    0.986    45 H    0.985    44 H    0.983
                            22 C    0.982
    25   7 N    2.985 --    22 C    0.966    46 H    0.950    47 H    0.950
    26   1 H    1.035 --     1 C    0.974
    27   1 H    1.023 --     1 C    0.977
    28   1 H    1.012 --     1 C    0.982
    29   1 H    0.886 --     6 O    0.832
    30   1 H    0.972 --    10 N    0.912
    31   1 H    1.010 --    11 C    0.978
    32   1 H    1.020 --    11 C    0.973
    33   1 H    1.001 --    13 C    0.972
    34   1 H    0.999 --    14 C    0.970
    35   1 H    1.000 --    17 C    0.971
    36   1 H    1.019 --    18 C    0.968
    37   1 H    1.011 --    20 C    0.982
    38   1 H    1.020 --    20 C    0.988
    39   1 H    1.024 --    20 C    0.989
    40   1 H    1.026 --    23 C    0.981
    41   1 H    1.020 --    23 C    0.984
    42   1 H    1.007 --    23 C    0.987
    43   1 H    1.012 --    24 C    0.986
    44   1 H    1.012 --    24 C    0.983
    45   1 H    1.003 --    24 C    0.985
    46   1 H    0.966 --    25 N    0.950
    47   1 H    0.970 --    25 N    0.950
 ---------------------------------------------------------------------------

           -------------------------------------------------
          | TOTAL ENERGY              -80.167336409858 Eh   |
          | GRADIENT NORM               0.000874323084 Eh/α |
          | HOMO-LUMO GAP               0.918238410479 eV   |
           -------------------------------------------------

 * finished run on 2023/06/20 at 14:59:48.292
