                         Program Version 5.0.1 -  RELEASE  -
|  1> # ORCA input file
|  2> ! SP r2SCAN-3c CPCM
|  3>
|  4> %maxcore 1875.0
|  5> %pal nprocs 4 end
|  6> %cpcm smd true SMDsolvent "DMSO" end
|  7>
|  8> *xyz -1 1
|  9> C      -3.247064   -1.733980    0.113476
| 10> O      -1.864117   -1.455452    0.146816
| 11> C      -1.507590   -0.192483   -0.410580
| 12> O      -2.413064    0.527921   -0.911761
| 13> C      -0.212359    0.175799   -0.159061
| 14> O       0.811820   -0.736930    0.243131
| 15> C       1.942311   -0.199557   -0.224771
| 16> C       3.221858   -0.927094    0.011363
| 17> N       1.851735    0.911661   -0.850095
| 18> N       0.454824    1.274223   -0.864333
| 19> C       0.327344    2.551286   -0.141402
| 20> H      -3.391247   -2.722086    0.555589
| 21> H      -3.821830   -0.996574    0.690298
| 22> H      -3.633431   -1.742892   -0.915090
| 23> H       4.054972   -0.337540   -0.363987
| 24> H       3.206010   -1.893206   -0.494114
| 25> H       3.355033   -1.106052    1.077691
| 26> H       0.655408    2.458799    0.898729
| 27> H      -0.722047    2.842421   -0.170426
| 28> H       0.931432    3.301734   -0.649599
| 29> **                         ****END OF INPUT****

CARTESIAN COORDINATES (ANGSTROEM)
---------------------------------
  C     -3.247064   -1.733980    0.113476
  O     -1.864117   -1.455452    0.146816
  C     -1.507590   -0.192483   -0.410580
  O     -2.413064    0.527921   -0.911761
  C     -0.212359    0.175799   -0.159061
  O      0.811820   -0.736930    0.243131
  C      1.942311   -0.199557   -0.224771
  C      3.221858   -0.927094    0.011363
  N      1.851735    0.911661   -0.850095
  N      0.454824    1.274223   -0.864333
  C      0.327344    2.551286   -0.141402
  H     -3.391247   -2.722086    0.555589
  H     -3.821830   -0.996574    0.690298
  H     -3.633431   -1.742892   -0.915090
  H      4.054972   -0.337540   -0.363987
  H      3.206010   -1.893206   -0.494114
  H      3.355033   -1.106052    1.077691
  H      0.655408    2.458799    0.898729
  H     -0.722047    2.842421   -0.170426
  H      0.931432    3.301734   -0.649599

 Total Charge           Charge          ....   -1
 Multiplicity           Mult            ....    1
 Number of Electrons    NEL             ....   84
 Basis Dimension        Dim             ....  279

ORBITAL ENERGIES
----------------

  NO   OCC          E(Eh)            E(eV)
   0   2.0000     -18.980402      -516.4830
   1   2.0000     -18.933066      -515.1949
   2   2.0000     -18.857347      -513.1345
   3   2.0000     -14.172068      -385.6416
   4   2.0000     -14.150224      -385.0472
   5   2.0000     -10.104198      -274.9492
   6   2.0000     -10.076874      -274.2057
   7   2.0000     -10.047978      -273.4194
   8   2.0000     -10.036960      -273.1196
   9   2.0000     -10.027798      -272.8703
  10   2.0000     -10.026655      -272.8391
  11   2.0000      -1.055683       -28.7266
  12   2.0000      -0.985742       -26.8234
  13   2.0000      -0.911686       -24.8082
  14   2.0000      -0.894099       -24.3297
  15   2.0000      -0.787916       -21.4403
  16   2.0000      -0.693896       -18.8819
  17   2.0000      -0.669977       -18.2310
  18   2.0000      -0.624262       -16.9870
  19   2.0000      -0.579470       -15.7682
  20   2.0000      -0.533236       -14.5101
  21   2.0000      -0.499986       -13.6053
  22   2.0000      -0.446775       -12.1574
  23   2.0000      -0.437254       -11.8983
  24   2.0000      -0.422513       -11.4972
  25   2.0000      -0.395139       -10.7523
  26   2.0000      -0.381415       -10.3788
  27   2.0000      -0.379718       -10.3327
  28   2.0000      -0.373636       -10.1672
  29   2.0000      -0.368123       -10.0171
  30   2.0000      -0.360099        -9.7988
  31   2.0000      -0.342231        -9.3126
  32   2.0000      -0.338351        -9.2070
  33   2.0000      -0.321096        -8.7375
  34   2.0000      -0.299719        -8.1558
  35   2.0000      -0.274356        -7.4656
  36   2.0000      -0.262721        -7.1490
  37   2.0000      -0.250674        -6.8212
  38   2.0000      -0.215451        -5.8627
  39   2.0000      -0.204456        -5.5635
  40   2.0000      -0.184699        -5.0259
  41   2.0000      -0.095532        -2.5996
  42   0.0000       0.013322         0.3625
  43   0.0000       0.057108         1.5540
  44   0.0000       0.092742         2.5236
  45   0.0000       0.104234         2.8364
  46   0.0000       0.109549         2.9810

MULLIKEN ATOMIC CHARGES
-----------------------
   0 C :   -0.344579
   1 O :   -0.240509
   2 C :    0.127412
   3 O :   -0.529820
   4 C :   -0.213465
   5 O :   -0.096595
   6 C :    0.375149
   7 C :   -0.650144
   8 N :   -0.342673
   9 N :   -0.162728
  10 C :   -0.404008
  11 H :    0.147438
  12 H :    0.145998
  13 H :    0.148878
  14 H :    0.189125
  15 H :    0.184199
  16 H :    0.183223
  17 H :    0.151420
  18 H :    0.173250
  19 H :    0.158429
Sum of atomic charges:   -1.0000000

LOEWDIN ATOMIC CHARGES
----------------------
   0 C :   -0.077797
   1 O :   -0.682640
   2 C :    0.316923
   3 O :   -0.622028
   4 C :    0.244025
   5 O :   -0.492297
   6 C :    0.338509
   7 C :   -0.332212
   8 N :   -0.442662
   9 N :   -0.663837
  10 C :   -0.128153
  11 H :    0.167924
  12 H :    0.160147
  13 H :    0.161448
  14 H :    0.179756
  15 H :    0.179230
  16 H :    0.179988
  17 H :    0.160084
  18 H :    0.179923
  19 H :    0.173669

  Mayer bond orders larger than 0.100000
B(  0-C ,  1-O ) :   0.8750 B(  0-C , 11-H ) :   0.9705 B(  0-C , 12-H ) :   0.9675
B(  0-C , 13-H ) :   0.9726 B(  1-O ,  2-C ) :   0.9161 B(  2-C ,  3-O ) :   1.6887
B(  2-C ,  4-C ) :   1.4491 B(  4-C ,  5-O ) :   0.8582 B(  4-C ,  9-N ) :   0.8379
B(  5-O ,  6-C ) :   1.1169 B(  6-C ,  7-C ) :   0.8418 B(  6-C ,  8-N ) :   1.7630
B(  7-C , 14-H ) :   0.9988 B(  7-C , 15-H ) :   0.9465 B(  7-C , 16-H ) :   0.9545
B(  8-N ,  9-N ) :   1.1591 B(  9-N , 10-C ) :   0.9053 B( 10-C , 17-H ) :   0.9586
B( 10-C , 18-H ) :   0.9693 B( 10-C , 19-H ) :   0.9715

Dispersion correction           -0.006299281
FINAL SINGLE POINT ENERGY      -569.171016879604

DIPOLE MOMENT
-------------
                                X             Y             Z
Electronic contribution:      0.36038      -0.94629      -1.61169
Nuclear contribution   :      1.43241      -0.18914       2.81578
                        -----------------------------------------
Total Dipole Moment    :      1.79279      -1.13543       1.20409
                        -----------------------------------------
Magnitude (a.u.)       :      2.43990
Magnitude (Debye)      :      6.20173

Rotational constants in cm-1:     0.065596     0.025554     0.019297
Rotational constants in MHz :  1966.505906   766.089873   578.521859

                             ****ORCA TERMINATED NORMALLY****
TOTAL RUN TIME: 0 days 0 hours 0 minutes 35 seconds 372 msec
