   * xtb version 6.5.1 (579679a) compiled by 'ehlert@majestix' on 2022-07-11
          program call               : /lustre/hpc/kemi/ree/PhD/git/ReactivityQM/dep/xtb-6.5.1/bin/xtb --gfn 1 /lustre/hpc/kemi/ree/PhD/git/ReactivityQM/calculations/R01/reac01prodE04/conf13/R01_reac01prodE04_conf13_gfn1.xyz --opt --vfukui --chrg -1 --uhf 0 --alpb DMSO

   ID    Z sym.   atoms
    1    6 C      1, 3, 5, 7, 8, 11
    2    8 O      2, 4, 6
    3    7 N      9, 10
    4    1 H      12-20

      * Solvation model:               ALPB
        Solvent                        DMSO
        Solvent mass                       7.8130E+01 g/mol
          :  Hamiltonian                  GFN1-xTB          :
 * total energy  :   -38.2919494 Eh     change       -0.6558309E-11 Eh
 * total energy  :   -38.3051976 Eh     change       -0.1324816E-01 Eh
 * total energy  :   -38.3080501 Eh     change       -0.2852486E-02 Eh
 * total energy  :   -38.3094216 Eh     change       -0.1371526E-02 Eh
 * total energy  :   -38.3118948 Eh     change       -0.2473244E-02 Eh
 * total energy  :   -38.3137450 Eh     change       -0.1850188E-02 Eh
 * total energy  :   -38.3153022 Eh     change       -0.1557127E-02 Eh
 * total energy  :   -38.3188838 Eh     change       -0.3581593E-02 Eh
 * total energy  :   -38.3206472 Eh     change       -0.1763427E-02 Eh
 * total energy  :   -38.3212954 Eh     change       -0.6482616E-03 Eh
 * total energy  :   -38.3248033 Eh     change       -0.1497105E-04 Eh
 * total energy  :   -38.3248206 Eh     change       -0.1725693E-04 Eh
 * total energy  :   -38.3248330 Eh     change       -0.1240509E-04 Eh
 * total energy  :   -38.3248393 Eh     change       -0.6271313E-05 Eh
 * total energy  :   -38.3248448 Eh     change       -0.5514304E-05 Eh
 * total energy  :   -38.3248527 Eh     change       -0.7909175E-05 Eh
 * total energy  :   -38.3248608 Eh     change       -0.8109679E-05 Eh
 * total energy  :   -38.3248665 Eh     change       -0.5703652E-05 Eh
 * total energy  :   -38.3248708 Eh     change       -0.4305159E-05 Eh
   *** GEOMETRY OPTIMIZATION CONVERGED AFTER 62 ITERATIONS ***

 final structure:
================
20
 xtb: 6.5.1 (579679a)
C           -3.24706386314030       -1.73397985212546        0.11347557766460
O           -1.86411695013944       -1.45545235617808        0.14681588675731
C           -1.50758950525174       -0.19248292769370       -0.41058016854569
O           -2.41306423032424        0.52792138043888       -0.91176069525791
C           -0.21235946275340        0.17579913157352       -0.15906125251260
O            0.81182005677524       -0.73693006775591        0.24313146627279
C            1.94231056225434       -0.19955670743201       -0.22477058944631
C            3.22185833316900       -0.92709354544153        0.01136256002769
N            1.85173510053209        0.91166051168910       -0.85009479563367
N            0.45482363038923        1.27422340061756       -0.86433277086135
C            0.32734387653431        2.55128623886813       -0.14140190919974
H           -3.39124742831016       -2.72208626448568        0.55558906705539
H           -3.82183012892623       -0.99657371353618        0.69029808719880
H           -3.63343079557732       -1.74289160309846       -0.91508968838185
H            4.05497232656517       -0.33753952764993       -0.36398737419231
H            3.20601028382680       -1.89320616324895       -0.49411351610528
H            3.35503322372856       -1.10605200187315        1.07769094713495
H            0.65540833290433        2.45879888624119        0.89872921409315
H           -0.72204693372362        2.84242060428336       -0.17042611635420
H            0.93143157146783        3.30173357680761       -0.64959892971341

          :  Hamiltonian                  GFN1-xTB          :
         :: total energy             -38.324870793778 Eh    ::
         :: gradient norm              0.000877674566 Eh/a0 ::
         :: HOMO-LUMO gap              2.404491762644 eV    ::
         :: SCC energy               -38.639282108359 Eh    ::
         :: -> Gsolv                  -0.102879349513 Eh    ::
         :: repulsion energy           0.322710726050 Eh    ::

    * Orbital Energies and Occupations

         #    Occupation            Energy/Eh            Energy/eV
      -------------------------------------------------------------
         1        2.0000           -0.7809865             -21.2517
       ...           ...                  ...                  ...
        19        2.0000           -0.5087613             -13.8441
        20        2.0000           -0.5052748             -13.7492
        21        2.0000           -0.4876156             -13.2687
        22        2.0000           -0.4825011             -13.1295
        23        2.0000           -0.4754219             -12.9369
        24        2.0000           -0.4631808             -12.6038
        25        2.0000           -0.4527959             -12.3212
        26        2.0000           -0.4240239             -11.5383
        27        2.0000           -0.4221981             -11.4886
        28        2.0000           -0.4150572             -11.2943
        29        2.0000           -0.3878957             -10.5552
        30        2.0000           -0.3851348             -10.4801
        31        2.0000           -0.2974376              -8.0937 (HOMO)
        32                         -0.2090742              -5.6892 (LUMO)
        33                         -0.1387521              -3.7756
        34                         -0.1236830              -3.3656
        35                         -0.1050101              -2.8575
        36                         -0.0930182              -2.5312
        37                         -0.0571846              -1.5561
        38                         -0.0564740              -1.5367
        39                         -0.0440192              -1.1978
        40                         -0.0417961              -1.1373
        41                         -0.0414260              -1.1273
        42                         -0.0383664              -1.0440
       ...                                ...                  ...
        62                          0.6807016              18.5228
      -------------------------------------------------------------
                  HL-Gap            0.0883634 Eh            2.4045 eV

Wiberg/Mayer (AO) data.
largest (>0.10) Wiberg bond orders for each atom

     #   Z sym  total        # sym  WBO       # sym  WBO       # sym  WBO
 ---------------------------------------------------------------------------
     1   6 C    3.923 --    12 H    0.987    13 H    0.981    14 H    0.980
                             2 O    0.957
     2   8 O    2.034 --     1 C    0.957     3 C    0.899
     3   6 C    3.882 --     5 C    1.493     4 O    1.373     2 O    0.899
     4   8 O    1.704 --     3 C    1.373     5 C    0.174
     5   6 C    3.639 --     3 C    1.493    10 N    0.950     6 O    0.876
                             4 O    0.174
     6   8 O    2.185 --     7 C    1.093     5 C    0.876     9 N    0.135
     7   6 C    3.908 --     9 N    1.709     6 O    1.093     8 C    1.014
     8   6 C    3.995 --     7 C    1.014    15 H    0.987    17 H    0.974
                            16 H    0.972
     9   7 N    2.946 --     7 C    1.709    10 N    0.985     6 O    0.135
    10   7 N    3.058 --     9 N    0.985    11 C    0.969     5 C    0.950
    11   6 C    3.981 --    20 H    0.989    19 H    0.988    18 H    0.984
                            10 N    0.969
    12   1 H    1.021 --     1 C    0.987
    13   1 H    1.022 --     1 C    0.981
    14   1 H    1.024 --     1 C    0.980
    15   1 H    1.006 --     8 C    0.987
    16   1 H    1.004 --     8 C    0.972
    17   1 H    1.003 --     8 C    0.974
    18   1 H    1.021 --    11 C    0.984
    19   1 H    1.029 --    11 C    0.988
    20   1 H    1.025 --    11 C    0.989
 ---------------------------------------------------------------------------

           -------------------------------------------------
          | TOTAL ENERGY              -38.324870793778 Eh   |
          | GRADIENT NORM               0.000877674566 Eh/α |
          | HOMO-LUMO GAP               2.404491762644 eV   |
           -------------------------------------------------

 * finished run on 2023/06/20 at 14:53:43.448
