   * xtb version 6.5.1 (579679a) compiled by 'ehlert@majestix' on 2022-07-11
          program call               : /lustre/hpc/kemi/ree/PhD/git/ReactivityQM/dep/xtb-6.5.1/bin/xtb --gfn 1 /lustre/hpc/kemi/ree/PhD/git/ReactivityQM/calculations/R02oxygendeprot/reac01prodN19/conf15/R02oxygendeprot_reac01prodN19_conf15_gfn1.xyz --opt --vfukui --chrg 0 --uhf 0 --alpb DMSO

   ID    Z sym.   atoms
    1    6 C      1, 3, 5, 7-10, 12, 14, 17, 18, 21, 23, 24
    2    8 O      2, 4, 13, 19, 22, 25
    3    7 N      6, 11, 15, 16, 20
    4    1 H      26-42

      * Solvation model:               ALPB
        Solvent                        DMSO
        Solvent mass                       7.8130E+01 g/mol
          :  Hamiltonian                  GFN1-xTB          :
 * total energy  :   -82.9792860 Eh     change       -0.4008882E-10 Eh
 * total energy  :   -82.9929129 Eh     change       -0.1362690E-01 Eh
 * total energy  :   -82.9979409 Eh     change       -0.5028022E-02 Eh
 * total energy  :   -82.9996238 Eh     change       -0.1682867E-02 Eh
 * total energy  :   -83.0009832 Eh     change       -0.1359404E-02 Eh
 * total energy  :   -83.0017357 Eh     change       -0.7524414E-03 Eh
 * total energy  :   -83.0022144 Eh     change       -0.4787705E-03 Eh
 * total energy  :   -83.0025472 Eh     change       -0.3328085E-03 Eh
 * total energy  :   -83.0027373 Eh     change       -0.1900846E-03 Eh
 * total energy  :   -83.0028514 Eh     change       -0.1141138E-03 Eh
 * total energy  :   -83.0034414 Eh     change       -0.1964386E-04 Eh
 * total energy  :   -83.0034590 Eh     change       -0.1761926E-04 Eh
 * total energy  :   -83.0034713 Eh     change       -0.1227387E-04 Eh
 * total energy  :   -83.0034806 Eh     change       -0.9295714E-05 Eh
 * total energy  :   -83.0034885 Eh     change       -0.7907558E-05 Eh
 * total energy  :   -83.0034957 Eh     change       -0.7213095E-05 Eh
 * total energy  :   -83.0035020 Eh     change       -0.6321938E-05 Eh
 * total energy  :   -83.0035074 Eh     change       -0.5372717E-05 Eh
 * total energy  :   -83.0035122 Eh     change       -0.4839592E-05 Eh
   *** GEOMETRY OPTIMIZATION CONVERGED AFTER 42 ITERATIONS ***

 final structure:
================
42
 xtb: 6.5.1 (579679a)
C           -4.36127706534134        3.60985838831186       -0.93331397987212
O           -3.45088569779023        2.52138594600686       -0.78009628078938
C           -3.82607337332156        1.55207984737663        0.07585786552010
O           -4.87412807782984        1.59908586650284        0.68197069242960
C           -2.82010801071856        0.46931140190848        0.16007404821172
N           -1.71086730120100        0.64516086571703       -0.59317456905458
C           -0.76399163423638       -0.23749403927641       -0.61273823731805
C            0.46021851997742       -0.03955800221583       -1.48615549023503
C            0.39660950470060        1.35135615229905       -2.11860180882717
C            0.52155356968558       -1.11463086978759       -2.57981316127349
N            1.68466834154077       -0.08181197788625       -0.66696786021509
C            2.21078286558622       -1.18060346998465       -0.09910840207530
O            1.69235780477134       -2.29220107538727       -0.08063654977766
C            3.51172262308789       -0.92742840804317        0.55976501788275
N            4.25384920317369       -1.77750143584120        1.19939262517996
N            5.34637653789973       -1.09414361219045        1.63718939721323
C            5.20542777838876        0.13268954142053        1.23957358230759
C            6.11899909748426        1.27230908719442        1.46910091183356
O            4.06457243811331        0.30499079678638        0.55183952986097
N           -0.88096659278408       -1.38492122366850        0.12596414183298
C           -1.92155887889398       -1.63705687421274        0.90825301545660
O           -1.83000947863271       -2.78817397995365        1.55726664562979
C           -2.84505480007473       -3.23893341993492        2.46258158917489
C           -3.03216415060334       -0.67917225897989        0.98857721979869
O           -4.01853467530607       -0.89196620639964        1.70878098800206
H           -4.48929629002960        4.13468947101078        0.01737320291638
H           -5.33375979162194        3.24663896589092       -1.27699919608502
H           -3.92780541267053        4.27855492323464       -1.67437790066812
H           -0.50074890190696        1.43316292086317       -2.73008805821966
H            0.35799653189101        2.11592421675825       -1.34427605122269
H            1.27070180464835        1.51571876972145       -2.74495328012953
H            0.53064159491066       -2.11377583422352       -2.14994570531409
H            1.42321975039445       -0.97641982114703       -3.17367548707895
H           -0.34917793333495       -1.01721088646071       -3.22627889229621
H            2.22672174137699        0.76703623972530       -0.63072096837178
H            7.01979780462996        0.92612195548323        1.96978809559866
H            5.62589028143363        2.02369187816787        2.08597190723049
H            6.37958415283321        1.73656628703902        0.51886204989837
H           -0.11154161774340       -2.06128900156404        0.10046212424622
H           -2.96448651503055       -2.53591683115999        3.28910351742964
H           -2.49234576064722       -4.19971167324477        2.83760460914933
H           -3.79690898681285       -3.36641261986188        1.94395810202803

          :  Hamiltonian                  GFN1-xTB          :
         :: total energy             -83.003512243927 Eh    ::
         :: gradient norm              0.000295332870 Eh/a0 ::
         :: HOMO-LUMO gap              2.263103367730 eV    ::
         :: SCC energy               -83.779300964612 Eh    ::
         :: -> Gsolv                  -0.060367606547 Eh    ::
         :: repulsion energy           0.800883352462 Eh    ::

    * Orbital Energies and Occupations

         #    Occupation            Energy/Eh            Energy/eV
      -------------------------------------------------------------
         1        2.0000           -0.8696331             -23.6639
       ...           ...                  ...                  ...
        55        2.0000           -0.5056209             -13.7586
        56        2.0000           -0.5044485             -13.7267
        57        2.0000           -0.4903898             -13.3442
        58        2.0000           -0.4856562             -13.2154
        59        2.0000           -0.4840527             -13.1717
        60        2.0000           -0.4732961             -12.8790
        61        2.0000           -0.4720412             -12.8449
        62        2.0000           -0.4680694             -12.7368
        63        2.0000           -0.4637074             -12.6181
        64        2.0000           -0.4566101             -12.4250
        65        2.0000           -0.4529929             -12.3266
        66        2.0000           -0.4190770             -11.4037
        67        2.0000           -0.4111026             -11.1867 (HOMO)
        68                         -0.3279351              -8.9236 (LUMO)
        69                         -0.3180843              -8.6555
        70                         -0.2805178              -7.6333
        71                         -0.2602204              -7.0810
        72                         -0.2385685              -6.4918
        73                         -0.2055862              -5.5943
        74                         -0.1512170              -4.1148
        75                         -0.1436708              -3.9095
        76                         -0.1377559              -3.7485
        77                         -0.1326684              -3.6101
        78                         -0.1302697              -3.5448
       ...                                ...                  ...
       134                          0.7301051              19.8672
      -------------------------------------------------------------
                  HL-Gap            0.0831675 Eh            2.2631 eV

Wiberg/Mayer (AO) data.
largest (>0.10) Wiberg bond orders for each atom

     #   Z sym  total        # sym  WBO       # sym  WBO       # sym  WBO
 ---------------------------------------------------------------------------
     1   6 C    3.881 --    28 H    0.986    26 H    0.980    27 H    0.980
                             2 O    0.907
     2   8 O    2.177 --     3 C    1.080     1 C    0.907     4 O    0.126
     3   6 C    3.853 --     4 O    1.645     2 O    1.080     5 C    1.036
     4   8 O    1.913 --     3 C    1.645     2 O    0.126
     5   6 C    3.948 --     6 N    1.280    24 C    1.215     3 C    1.036
                            25 O    0.128
     6   7 N    3.043 --     7 C    1.539     5 C    1.280
     7   6 C    3.918 --     6 N    1.539    20 N    1.135     8 C    0.975
     8   6 C    3.932 --     9 C    1.001    10 C    0.982     7 C    0.975
                            11 N    0.913
     9   6 C    3.990 --     8 C    1.001    31 H    0.985    30 H    0.983
                            29 H    0.982
    10   6 C    3.986 --    34 H    0.984    33 H    0.983     8 C    0.982
                            32 H    0.979
    11   7 N    3.357 --    12 C    1.281     8 C    0.913    35 H    0.890
                            13 O    0.174
    12   6 C    3.915 --    13 O    1.544    11 N    1.281    14 C    1.001
    13   8 O    1.914 --    12 C    1.544    11 N    0.174
    14   6 C    3.875 --    15 N    1.618    19 O    1.047    12 C    1.001
    15   7 N    3.002 --    14 C    1.618    16 N    1.203
    16   7 N    2.982 --    17 C    1.606    15 N    1.203
    17   6 C    3.867 --    16 N    1.606    19 O    1.073    18 C    1.032
    18   6 C    3.986 --    17 C    1.032    36 H    0.982    38 H    0.964
                            37 H    0.960
    19   8 O    2.317 --    17 C    1.073    14 C    1.047
    20   7 N    3.536 --    21 C    1.341     7 C    1.135    39 H    0.828
    21   6 C    3.860 --    20 N    1.341    22 O    1.135    24 C    1.068
    22   8 O    2.221 --    21 C    1.135    23 C    0.881
    23   6 C    3.851 --    41 H    0.984    40 H    0.978    42 H    0.978
                            22 O    0.881
    24   6 C    3.951 --    25 O    1.510     5 C    1.215    21 C    1.068
    25   8 O    1.859 --    24 C    1.510     5 C    0.128
    26   1 H    1.008 --     1 C    0.980
    27   1 H    1.009 --     1 C    0.980
    28   1 H    1.012 --     1 C    0.986
    29   1 H    1.008 --     9 C    0.982
    30   1 H    1.004 --     9 C    0.983
    31   1 H    0.998 --     9 C    0.985
    32   1 H    1.008 --    10 C    0.979
    33   1 H    0.999 --    10 C    0.983
    34   1 H    1.001 --    10 C    0.984
    35   1 H    0.934 --    11 N    0.890
    36   1 H    0.998 --    18 C    0.982
    37   1 H    0.996 --    18 C    0.960
    38   1 H    0.996 --    18 C    0.964
    39   1 H    0.926 --    20 N    0.828
    40   1 H    1.016 --    23 C    0.978
    41   1 H    1.010 --    23 C    0.984
    42   1 H    1.016 --    23 C    0.978
 ---------------------------------------------------------------------------

           -------------------------------------------------
          | TOTAL ENERGY              -83.003512243927 Eh   |
          | GRADIENT NORM               0.000295332870 Eh/α |
          | HOMO-LUMO GAP               2.263103367730 eV   |
           -------------------------------------------------

 * finished run on 2023/06/21 at 17:40:10.790
