   * xtb version 6.5.1 (579679a) compiled by 'ehlert@majestix' on 2022-07-11
          program call               : /lustre/hpc/kemi/ree/PhD/git/ReactivityQM/dep/xtb-6.5.1/bin/xtb --gfn 1 /lustre/hpc/kemi/ree/PhD/git/ReactivityQM/calculations/R02methylcation/reac01prodN10/conf12/R02methylcation_reac01prodN10_conf12_gfn1.xyz --opt --vfukui --chrg 0 --uhf 0 --alpb DMSO

   ID    Z sym.   atoms
    1    6 C      1, 3, 5, 6, 8, 11-15, 17, 19, 22, 23
    2    8 O      2, 4, 7, 9, 18, 24
    3    7 N      10, 16, 20, 21, 25
    4    1 H      26-42

      * Solvation model:               ALPB
        Solvent                        DMSO
        Solvent mass                       7.8130E+01 g/mol
          :  Hamiltonian                  GFN1-xTB          :
 * total energy  :   -82.9633226 Eh     change       -0.7560175E-11 Eh
 * total energy  :   -82.9756003 Eh     change       -0.1227771E-01 Eh
 * total energy  :   -82.9807885 Eh     change       -0.5188200E-02 Eh
 * total energy  :   -82.9817299 Eh     change       -0.9414190E-03 Eh
 * total energy  :   -82.9822041 Eh     change       -0.4741438E-03 Eh
 * total energy  :   -82.9824456 Eh     change       -0.2415738E-03 Eh
 * total energy  :   -82.9826158 Eh     change       -0.1701426E-03 Eh
 * total energy  :   -82.9827229 Eh     change       -0.1071246E-03 Eh
 * total energy  :   -82.9828042 Eh     change       -0.8133505E-04 Eh
 * total energy  :   -82.9828691 Eh     change       -0.6482278E-04 Eh
 * total energy  :   -82.9829700 Eh     change       -0.2311447E-04 Eh
 * total energy  :   -82.9829882 Eh     change       -0.1822960E-04 Eh
 * total energy  :   -82.9830075 Eh     change       -0.1923979E-04 Eh
 * total energy  :   -82.9830182 Eh     change       -0.1074359E-04 Eh
 * total energy  :   -82.9830322 Eh     change       -0.1397702E-04 Eh
 * total energy  :   -82.9830394 Eh     change       -0.7189888E-05 Eh
 * total energy  :   -82.9830441 Eh     change       -0.4767449E-05 Eh
 * total energy  :   -82.9830489 Eh     change       -0.4801416E-05 Eh
 * total energy  :   -82.9830518 Eh     change       -0.2820283E-05 Eh
   *** GEOMETRY OPTIMIZATION CONVERGED AFTER 21 ITERATIONS ***

 final structure:
================
42
 xtb: 6.5.1 (579679a)
C           -6.73335901550858       -0.18849788810981       -0.65661564618648
O           -5.43141472020354        0.39628737668934       -0.51483052674460
C           -4.51144110584686       -0.33733910181688        0.08366794833594
O           -4.68699070098480       -1.45116620497890        0.50723938284658
C           -3.17651566538663        0.37723971861065        0.16706670858620
C           -3.08809826063206        1.86684092058156        0.10209565868753
O           -3.96736883758199        2.61164977792485        0.44882371809771
C           -1.73403431050500        2.36753053801841       -0.41082321873097
O           -1.58783809304221        3.43785297936370       -0.96431201542310
N           -0.73060737806915        1.48905623273343       -0.21447766587150
C           -0.83947571127045        0.20840847395982        0.46168185139102
C           -0.61108301350492        0.40494565129295        1.96919970167431
C            0.15279034010627       -0.78752108222107       -0.20725237007671
C            0.11041451759136       -2.14780742745466        0.49630464168224
C           -0.22451124367106       -0.93340636806180       -1.68603802560162
N            1.49565778720292       -0.21374520611908       -0.09259374101715
C            2.60387617132951       -0.82769075522675       -0.57194242560583
O            2.62024263648052       -1.83537042918512       -1.25295763185676
C            3.82461685667032       -0.08940589407242       -0.16131163270624
N            3.86077270951254        0.96663013333243        0.59591447934254
N            5.17208824483828        1.30497989252043        0.73506840595425
C            5.85388085898539        0.43193743271399        0.05553766622874
C            7.32220852963377        0.36163799968811       -0.11113247430976
O            5.05859299796382       -0.47358107634724       -0.53271055490956
N           -2.14957871264237       -0.35881443901744        0.33162578499300
H           -6.66437805811972       -1.10762634505851       -1.24172852784005
H           -7.14727444196852       -0.41404786166377        0.32824524354031
H           -7.34820251198821        0.54661925877491       -1.17114019894399
H            0.19657928768456        1.79888006314860       -0.46002313470574
H           -1.28375394671762        1.18410555181458        2.32357236413770
H            0.41513958506495        0.70763888446118        2.16083021049587
H           -0.82407648600007       -0.51754902317654        2.50408401851118
H           -0.92113724743045       -2.48873096775525        0.57056924857478
H            0.68380334746899       -2.87444858024443       -0.07720819864793
H            0.53903512313346       -2.07696149415204        1.49399499447654
H            0.44066392316276       -1.64140556515155       -2.17615461875327
H           -1.24780896559484       -1.29945240286755       -1.75930194475117
H           -0.15326245561807        0.02779867990473       -2.19217681467317
H            1.64627193708973        0.55428694007785        0.54316164679858
H            7.79757198324930        1.11975181468600        0.50657586990057
H            7.68214423791576       -0.62609131552985        0.17559587097980
H            7.58585880720319        0.52658110791090       -1.15621204787802

          :  Hamiltonian                  GFN1-xTB          :
         :: total energy             -82.983051756127 Eh    ::
         :: gradient norm              0.000411663367 Eh/a0 ::
         :: HOMO-LUMO gap              1.791570632270 eV    ::
         :: SCC energy               -83.764347188894 Eh    ::
         :: -> Gsolv                  -0.053892022011 Eh    ::
         :: repulsion energy           0.808442508378 Eh    ::

    * Orbital Energies and Occupations

         #    Occupation            Energy/Eh            Energy/eV
      -------------------------------------------------------------
         1        2.0000           -0.8650790             -23.5400
       ...           ...                  ...                  ...
        55        2.0000           -0.5078209             -13.8185
        56        2.0000           -0.5072927             -13.8041
        57        2.0000           -0.5047850             -13.7359
        58        2.0000           -0.5032845             -13.6951
        59        2.0000           -0.4985648             -13.5666
        60        2.0000           -0.4842573             -13.1773
        61        2.0000           -0.4831578             -13.1474
        62        2.0000           -0.4705768             -12.8050
        63        2.0000           -0.4635082             -12.6127
        64        2.0000           -0.4628179             -12.5939
        65        2.0000           -0.4538863             -12.3509
        66        2.0000           -0.4499407             -12.2435
        67        2.0000           -0.4397285             -11.9656 (HOMO)
        68                         -0.3738895             -10.1741 (LUMO)
        69                         -0.3206466              -8.7252
        70                         -0.3136422              -8.5346
        71                         -0.2580550              -7.0220
        72                         -0.2524788              -6.8703
        73                         -0.2100917              -5.7169
        74                         -0.2016291              -5.4866
        75                         -0.1454951              -3.9591
        76                         -0.1432901              -3.8991
        77                         -0.1423402              -3.8733
        78                         -0.1326192              -3.6088
       ...                                ...                  ...
       134                          0.7641371              20.7932
      -------------------------------------------------------------
                  HL-Gap            0.0658390 Eh            1.7916 eV

Wiberg/Mayer (AO) data.
largest (>0.10) Wiberg bond orders for each atom

     #   Z sym  total        # sym  WBO       # sym  WBO       # sym  WBO
 ---------------------------------------------------------------------------
     1   6 C    3.858 --    28 H    0.985    26 H    0.979    27 H    0.978
                             2 O    0.884
     2   8 O    2.225 --     3 C    1.147     1 C    0.884     4 O    0.147
     3   6 C    3.854 --     4 O    1.686     2 O    1.147     5 C    0.944
     4   8 O    1.950 --     3 C    1.686     2 O    0.147
     5   6 C    3.954 --    25 N    1.800     6 C    0.988     3 C    0.944
     6   6 C    3.854 --     7 O    1.809     5 C    0.988     8 C    0.904
     7   8 O    2.013 --     6 C    1.809
     8   6 C    3.904 --     9 O    1.633    10 N    1.252     6 C    0.904
     9   8 O    1.927 --     8 C    1.633    10 N    0.185
    10   7 N    3.362 --     8 C    1.252    11 C    0.936    29 H    0.882
                             9 O    0.185
    11   6 C    3.914 --    25 N    0.995    12 C    0.949    13 C    0.939
                            10 N    0.936
    12   6 C    3.983 --    30 H    0.981    32 H    0.980    31 H    0.977
                            11 C    0.949
    13   6 C    3.926 --    15 C    0.995    14 C    0.994    11 C    0.939
                            16 N    0.928
    14   6 C    3.989 --    13 C    0.994    35 H    0.983    33 H    0.983
                            34 H    0.979
    15   6 C    3.989 --    13 C    0.995    38 H    0.984    37 H    0.983
                            36 H    0.979
    16   7 N    3.330 --    17 C    1.235    13 C    0.928    39 H    0.894
                            18 O    0.173
    17   6 C    3.914 --    18 O    1.604    16 N    1.235    19 C    0.991
    18   8 O    1.920 --    17 C    1.604    16 N    0.173
    19   6 C    3.876 --    20 N    1.607    24 O    1.065    17 C    0.991
    20   7 N    3.020 --    19 C    1.607    21 N    1.203
    21   7 N    2.981 --    22 C    1.602    20 N    1.203
    22   6 C    3.870 --    21 N    1.602    24 O    1.083    23 C    1.032
    23   6 C    3.986 --    22 C    1.032    40 H    0.982    41 H    0.965
                            42 H    0.961
    24   8 O    2.332 --    22 C    1.083    19 C    1.065
    25   7 N    3.054 --     5 C    1.800    11 C    0.995
    26   1 H    1.004 --     1 C    0.979
    27   1 H    1.004 --     1 C    0.978
    28   1 H    1.008 --     1 C    0.985
    29   1 H    0.927 --    10 N    0.882
    30   1 H    0.999 --    12 C    0.981
    31   1 H    0.996 --    12 C    0.977
    32   1 H    0.999 --    12 C    0.980
    33   1 H    1.009 --    14 C    0.983
    34   1 H    1.006 --    14 C    0.979
    35   1 H    1.001 --    14 C    0.983
    36   1 H    1.010 --    15 C    0.979
    37   1 H    1.004 --    15 C    0.983
    38   1 H    1.003 --    15 C    0.984
    39   1 H    0.956 --    16 N    0.894
    40   1 H    0.998 --    23 C    0.982
    41   1 H    0.996 --    23 C    0.965
    42   1 H    0.996 --    23 C    0.961
 ---------------------------------------------------------------------------

           -------------------------------------------------
          | TOTAL ENERGY              -82.983051756127 Eh   |
          | GRADIENT NORM               0.000411663367 Eh/α |
          | HOMO-LUMO GAP               1.791570632270 eV   |
           -------------------------------------------------

 * finished run on 2023/06/21 at 17:41:56.396
