                         Program Version 5.0.1 -  RELEASE  -
|  1> # ORCA input file
|  2> ! SP r2SCAN-3c CPCM
|  3>
|  4> %maxcore 1875.0
|  5> %pal nprocs 4 end
|  6> %cpcm smd true SMDsolvent "DMSO" end
|  7>
|  8> *xyz -2 1
|  9> C      -5.357189    2.867709    0.033962
| 10> O      -4.204204    2.061265    0.172316
| 11> C      -4.135072    0.969158   -0.685582
| 12> O      -5.060972    0.771777   -1.474831
| 13> C      -2.953935    0.191833   -0.497078
| 14> C      -2.638062   -0.937866   -1.280157
| 15> O      -3.328578   -1.445964   -2.185982
| 16> C      -1.268232   -1.606327   -0.924617
| 17> C      -1.286807   -3.089893   -1.307972
| 18> O      -0.187987   -0.954853   -1.576867
| 19> N      -1.111666   -1.482852    0.517788
| 20> C      -1.126205   -0.118735    0.884002
| 21> C       0.116439    0.363746    1.613302
| 22> C       0.325825   -0.401414    2.930197
| 23> C       0.003770    1.869533    1.892270
| 24> N       1.162994    0.067258    0.622243
| 25> C       2.405399    0.360357    0.918597
| 26> O       2.898928    0.860682    1.953319
| 27> C       3.314351    0.011516   -0.239536
| 28> N       2.957744   -0.383366   -1.424922
| 29> N       4.109114   -0.566995   -2.152591
| 30> C       5.087687   -0.270705   -1.362618
| 31> C       6.537319   -0.309134   -1.671251
| 32> O       4.662833    0.105062   -0.144506
| 33> N      -2.007401    0.685350    0.441112
| 34> H      -5.410203    3.317870   -0.964588
| 35> H      -5.291760    3.657700    0.782553
| 36> H      -6.271392    2.285889    0.200795
| 37> H      -0.322436   -3.541768   -1.084747
| 38> H      -1.488376   -3.187301   -2.374306
| 39> H      -2.064465   -3.607712   -0.749480
| 40> H      -0.250292   -1.930210    0.815920
| 41> H       0.472713   -1.464107    2.740275
| 42> H       1.201084   -0.021112    3.455433
| 43> H      -0.547998   -0.278179    3.571243
| 44> H      -0.116385    2.417332    0.956367
| 45> H      -0.867932    2.060930    2.519683
| 46> H       0.893286    2.231153    2.406204
| 47> H       0.440814   -0.604948   -0.867948
| 48> H       7.054720   -0.959596   -0.966965
| 49> H       6.968206    0.688408   -1.588223
| 50> H       6.684320   -0.681488   -2.682033
| 51> **                         ****END OF INPUT****

CARTESIAN COORDINATES (ANGSTROEM)
---------------------------------
  C     -5.357189    2.867709    0.033962
  O     -4.204204    2.061265    0.172316
  C     -4.135072    0.969158   -0.685582
  O     -5.060972    0.771777   -1.474831
  C     -2.953935    0.191833   -0.497078
  C     -2.638062   -0.937866   -1.280157
  O     -3.328578   -1.445964   -2.185982
  C     -1.268232   -1.606327   -0.924617
  C     -1.286807   -3.089893   -1.307972
  O     -0.187987   -0.954853   -1.576867
  N     -1.111666   -1.482852    0.517788
  C     -1.126205   -0.118735    0.884002
  C      0.116439    0.363746    1.613302
  C      0.325825   -0.401414    2.930197
  C      0.003770    1.869533    1.892270
  N      1.162994    0.067258    0.622243
  C      2.405399    0.360357    0.918597
  O      2.898928    0.860682    1.953319
  C      3.314351    0.011516   -0.239536
  N      2.957744   -0.383366   -1.424922
  N      4.109114   -0.566995   -2.152591
  C      5.087687   -0.270705   -1.362618
  C      6.537319   -0.309134   -1.671251
  O      4.662833    0.105062   -0.144506
  N     -2.007401    0.685350    0.441112
  H     -5.410203    3.317870   -0.964588
  H     -5.291760    3.657700    0.782553
  H     -6.271392    2.285889    0.200795
  H     -0.322436   -3.541768   -1.084747
  H     -1.488376   -3.187301   -2.374306
  H     -2.064465   -3.607712   -0.749480
  H     -0.250292   -1.930210    0.815920
  H      0.472713   -1.464107    2.740275
  H      1.201084   -0.021112    3.455433
  H     -0.547998   -0.278179    3.571243
  H     -0.116385    2.417332    0.956367
  H     -0.867932    2.060930    2.519683
  H      0.893286    2.231153    2.406204
  H      0.440814   -0.604948   -0.867948
  H      7.054720   -0.959596   -0.966965
  H      6.968206    0.688408   -1.588223
  H      6.684320   -0.681488   -2.682033

 Total Charge           Charge          ....   -2
 Multiplicity           Mult            ....    1
 Number of Electrons    NEL             ....  186
 Basis Dimension        Dim             ....  615

ORBITAL ENERGIES
----------------

  NO   OCC          E(Eh)            E(eV)
   0   2.0000     -19.037455      -518.0355
   1   2.0000     -18.949287      -515.6363
   2   2.0000     -18.899635      -514.2852
   3   2.0000     -18.882172      -513.8100
   4   2.0000     -18.873034      -513.5614
   5   2.0000     -18.868655      -513.4422
   6   2.0000     -14.175114      -385.7245
   7   2.0000     -14.170917      -385.6102
   8   2.0000     -14.141754      -384.8167
   9   2.0000     -14.110498      -383.9662
  10   2.0000     -14.097684      -383.6175
  11   2.0000     -10.122962      -275.4598
  12   2.0000     -10.109947      -275.1056
  13   2.0000     -10.103163      -274.9210
  14   2.0000     -10.089281      -274.5433
  15   2.0000     -10.083835      -274.3951
  16   2.0000     -10.053465      -273.5687
  17   2.0000     -10.052616      -273.5456
  18   2.0000     -10.052590      -273.5449
  19   2.0000     -10.049356      -273.4569
  20   2.0000     -10.035393      -273.0769
  21   2.0000     -10.003344      -272.2048
  22   2.0000      -9.998878      -272.0833
  23   2.0000      -9.995779      -271.9990
  24   2.0000      -9.993817      -271.9456
  25   2.0000      -1.124581       -30.6014
  26   2.0000      -1.014360       -27.6021
  27   2.0000      -0.961241       -26.1567
  28   2.0000      -0.948754       -25.8169
  29   2.0000      -0.944316       -25.6961
  30   2.0000      -0.928136       -25.2559
  31   2.0000      -0.919487       -25.0205
  32   2.0000      -0.888795       -24.1853
  33   2.0000      -0.826806       -22.4985
  34   2.0000      -0.810132       -22.0448
  35   2.0000      -0.802190       -21.8287
  36   2.0000      -0.724490       -19.7144
  37   2.0000      -0.694560       -18.8999
  38   2.0000      -0.686131       -18.6706
  39   2.0000      -0.674603       -18.3569
  40   2.0000      -0.639268       -17.3954
  41   2.0000      -0.630994       -17.1702
  42   2.0000      -0.624944       -17.0056
  43   2.0000      -0.585241       -15.9252
  44   2.0000      -0.576908       -15.6985
  45   2.0000      -0.559927       -15.2364
  46   2.0000      -0.524261       -14.2659
  47   2.0000      -0.507972       -13.8226
  48   2.0000      -0.483564       -13.1585
  49   2.0000      -0.467493       -12.7211
  50   2.0000      -0.464118       -12.6293
  51   2.0000      -0.457139       -12.4394
  52   2.0000      -0.442856       -12.0507
  53   2.0000      -0.434163       -11.8142
  54   2.0000      -0.419266       -11.4088
  55   2.0000      -0.414847       -11.2886
  56   2.0000      -0.408667       -11.1204
  57   2.0000      -0.393778       -10.7152
  58   2.0000      -0.388379       -10.5683
  59   2.0000      -0.384599       -10.4655
  60   2.0000      -0.381940       -10.3931
  61   2.0000      -0.374244       -10.1837
  62   2.0000      -0.370953       -10.0941
  63   2.0000      -0.366801        -9.9812
  64   2.0000      -0.362658        -9.8684
  65   2.0000      -0.352555        -9.5935
  66   2.0000      -0.350634        -9.5412
  67   2.0000      -0.342475        -9.3192
  68   2.0000      -0.338800        -9.2192
  69   2.0000      -0.335127        -9.1193
  70   2.0000      -0.331470        -9.0197
  71   2.0000      -0.321936        -8.7603
  72   2.0000      -0.318686        -8.6719
  73   2.0000      -0.317281        -8.6336
  74   2.0000      -0.314370        -8.5544
  75   2.0000      -0.293801        -7.9947
  76   2.0000      -0.292243        -7.9523
  77   2.0000      -0.290883        -7.9153
  78   2.0000      -0.286776        -7.8036
  79   2.0000      -0.285661        -7.7732
  80   2.0000      -0.272049        -7.4028
  81   2.0000      -0.246160        -6.6984
  82   2.0000      -0.236595        -6.4381
  83   2.0000      -0.231838        -6.3086
  84   2.0000      -0.226148        -6.1538
  85   2.0000      -0.218460        -5.9446
  86   2.0000      -0.211658        -5.7595
  87   2.0000      -0.202219        -5.5027
  88   2.0000      -0.200682        -5.4608
  89   2.0000      -0.180264        -4.9052
  90   2.0000      -0.175337        -4.7712
  91   2.0000      -0.150370        -4.0918
  92   2.0000      -0.133707        -3.6383
  93   0.0000      -0.042881        -1.1669
  94   0.0000      -0.002391        -0.0651
  95   0.0000       0.001825         0.0497
  96   0.0000       0.014393         0.3917
  97   0.0000       0.068713         1.8698

MULLIKEN ATOMIC CHARGES
-----------------------
   0 C :   -0.335362
   1 O :   -0.203267
   2 C :    0.057078
   3 O :   -0.426572
   4 C :   -0.082809
   5 C :   -0.247301
   6 O :   -0.372283
   7 C :    0.363426
   8 C :   -0.585453
   9 O :   -0.431115
  10 N :   -0.479321
  11 C :    0.156274
  12 C :    0.097719
  13 C :   -0.638208
  14 C :   -0.710190
  15 N :   -0.198210
  16 C :   -0.240416
  17 O :   -0.502064
  18 C :    0.331994
  19 N :   -0.087209
  20 N :   -0.382933
  21 C :    0.411583
  22 C :   -0.651954
  23 O :   -0.038819
  24 N :   -0.097012
  25 H :    0.154877
  26 H :    0.155565
  27 H :    0.156360
  28 H :    0.161642
  29 H :    0.173955
  30 H :    0.164484
  31 H :    0.302878
  32 H :    0.162811
  33 H :    0.193645
  34 H :    0.174217
  35 H :    0.174663
  36 H :    0.170341
  37 H :    0.182761
  38 H :    0.381103
  39 H :    0.191582
  40 H :    0.193260
  41 H :    0.198279
Sum of atomic charges:   -2.0000000

LOEWDIN ATOMIC CHARGES
----------------------
   0 C :   -0.066344
   1 O :   -0.642294
   2 C :    0.374114
   3 O :   -0.514460
   4 C :    0.066393
   5 C :    0.248483
   6 O :   -0.590900
   7 C :    0.255534
   8 C :   -0.356498
   9 O :   -0.565920
  10 N :   -0.632194
  11 C :    0.293979
  12 C :    0.076042
  13 C :   -0.375294
  14 C :   -0.375302
  15 N :   -0.729478
  16 C :    0.305376
  17 O :   -0.580296
  18 C :    0.422190
  19 N :   -0.377650
  20 N :   -0.393804
  21 C :    0.352946
  22 C :   -0.326262
  23 O :   -0.385200
  24 N :   -0.626290
  25 H :    0.166672
  26 H :    0.172487
  27 H :    0.168022
  28 H :    0.159559
  29 H :    0.171842
  30 H :    0.164393
  31 H :    0.280967
  32 H :    0.161421
  33 H :    0.174020
  34 H :    0.160385
  35 H :    0.166282
  36 H :    0.160740
  37 H :    0.167515
  38 H :    0.311572
  39 H :    0.185187
  40 H :    0.185706
  41 H :    0.186360

  Mayer bond orders larger than 0.100000
B(  0-C ,  1-O ) :   0.8610 B(  0-C , 25-H ) :   0.9661 B(  0-C , 26-H ) :   0.9701
B(  0-C , 27-H ) :   0.9677 B(  1-O ,  2-C ) :   1.0049 B(  2-C ,  3-O ) :   1.8790
B(  2-C ,  4-C ) :   1.1397 B(  4-C ,  5-C ) :   1.0762 B(  4-C ,  6-O ) :  -0.1635
B(  4-C , 24-N ) :   0.8763 B(  5-C ,  6-O ) :   2.0694 B(  5-C ,  7-C ) :   0.7905
B(  6-O ,  7-C ) :  -0.1103 B(  7-C ,  8-C ) :   0.8728 B(  7-C ,  9-O ) :   0.8702
B(  7-C , 10-N ) :   0.8690 B(  8-C , 28-H ) :   0.9774 B(  8-C , 29-H ) :   0.9892
B(  8-C , 30-H ) :   0.9804 B(  9-O , 11-C ) :   0.1504 B(  9-O , 38-H ) :   0.6811
B( 10-N , 11-C ) :   1.0654 B( 10-N , 31-H ) :   0.8710 B( 11-C , 12-C ) :   0.9684
B( 11-C , 15-N ) :  -0.1758 B( 11-C , 24-N ) :   1.9115 B( 12-C , 13-C ) :   0.9178
B( 12-C , 14-C ) :   0.7891 B( 12-C , 15-N ) :   0.9715 B( 13-C , 32-H ) :   0.9583
B( 13-C , 33-H ) :   0.9807 B( 13-C , 34-H ) :   0.9783 B( 14-C , 35-H ) :   0.9903
B( 14-C , 36-H ) :   0.9787 B( 14-C , 37-H ) :   0.9773 B( 15-N , 16-C ) :   1.4935
B( 15-N , 18-C ) :  -0.1010 B( 15-N , 38-H ) :   0.2003 B( 16-C , 17-O ) :   1.8424
B( 16-C , 18-C ) :   0.7840 B( 18-C , 19-N ) :   1.7430 B( 18-C , 23-O ) :   1.0993
B( 19-N , 20-N ) :   1.2214 B( 20-N , 21-C ) :   1.6533 B( 21-C , 22-C ) :   0.8226
B( 21-C , 23-O ) :   1.0736 B( 22-C , 39-H ) :   0.9506 B( 22-C , 40-H ) :   0.9465
B( 22-C , 41-H ) :   0.9951

Dispersion correction           -0.019570863
FINAL SINGLE POINT ENERGY     -1268.873197949885

DIPOLE MOMENT
-------------
                                X             Y             Z
Electronic contribution:      3.26659      -0.47582      -6.78892
Nuclear contribution   :      1.99866       0.46170       8.93968
                        -----------------------------------------
Total Dipole Moment    :      5.26526      -0.01412       2.15077
                        -----------------------------------------
Magnitude (a.u.)       :      5.68761
Magnitude (Debye)      :     14.45676

Rotational constants in cm-1:     0.013622     0.003951     0.003522
Rotational constants in MHz :   408.369024   118.443647   105.589908

                             ****ORCA TERMINATED NORMALLY****
TOTAL RUN TIME: 0 days 0 hours 1 minutes 30 seconds 824 msec
