   * xtb version 6.5.1 (579679a) compiled by 'ehlert@majestix' on 2022-07-11
          program call               : /lustre/hpc/kemi/ree/PhD/git/ReactivityQM/dep/xtb-6.5.1/bin/xtb --gfn 1 /lustre/hpc/kemi/ree/PhD/git/ReactivityQM/calculations/R02oxygendeprot/reac01prodE12/conf07/R02oxygendeprot_reac01prodE12_conf07_gfn1.xyz --opt --vfukui --chrg -2 --uhf 0 --alpb DMSO

   ID    Z sym.   atoms
    1    6 C      1, 3, 5, 6, 8, 9, 12-15, 17, 19, 22, 23
    2    8 O      2, 4, 7, 10, 18, 24
    3    7 N      11, 16, 20, 21, 25
    4    1 H      26-42

      * Solvation model:               ALPB
        Solvent                        DMSO
        Solvent mass                       7.8130E+01 g/mol
          :  Hamiltonian                  GFN1-xTB          :
 * total energy  :   -83.5986572 Eh     change       -0.3643095E-09 Eh
 * total energy  :   -83.6136108 Eh     change       -0.1495352E-01 Eh
 * total energy  :   -83.6196146 Eh     change       -0.6003798E-02 Eh
 * total energy  :   -83.6208944 Eh     change       -0.1279848E-02 Eh
 * total energy  :   -83.6218892 Eh     change       -0.9948055E-03 Eh
 * total energy  :   -83.6223450 Eh     change       -0.4558106E-03 Eh
 * total energy  :   -83.6226783 Eh     change       -0.3332700E-03 Eh
 * total energy  :   -83.6229164 Eh     change       -0.2381346E-03 Eh
 * total energy  :   -83.6231088 Eh     change       -0.1923332E-03 Eh
 * total energy  :   -83.6233600 Eh     change       -0.2512745E-03 Eh
 * total energy  :   -83.6474693 Eh     change       -0.1715458E-03 Eh
 * total energy  :   -83.6475532 Eh     change       -0.8396032E-04 Eh
 * total energy  :   -83.6476159 Eh     change       -0.6264228E-04 Eh
 * total energy  :   -83.6476370 Eh     change       -0.2115278E-04 Eh
 * total energy  :   -83.6476634 Eh     change       -0.2638571E-04 Eh
 * total energy  :   -83.6476853 Eh     change       -0.2187619E-04 Eh
 * total energy  :   -83.6477006 Eh     change       -0.1535201E-04 Eh
 * total energy  :   -83.6477130 Eh     change       -0.1238233E-04 Eh
 * total energy  :   -83.6477180 Eh     change       -0.4944408E-05 Eh
   *** GEOMETRY OPTIMIZATION CONVERGED AFTER 62 ITERATIONS ***

 final structure:
================
42
 xtb: 6.5.1 (579679a)
C           -5.35718903402025        2.86770922441222        0.03396212889770
O           -4.20420425019482        2.06126466053957        0.17231552529018
C           -4.13507196314007        0.96915755572896       -0.68558177485204
O           -5.06097174084312        0.77177714976817       -1.47483078079691
C           -2.95393491057315        0.19183343948679       -0.49707843924238
C           -2.63806216867902       -0.93786613638019       -1.28015684803993
O           -3.32857826695165       -1.44596397893637       -2.18598244892351
C           -1.26823158349933       -1.60632700687560       -0.92461670577087
C           -1.28680727735193       -3.08989263126081       -1.30797169599114
O           -0.18798723202881       -0.95485310132996       -1.57686706570047
N           -1.11166611755828       -1.48285228519530        0.51778845708190
C           -1.12620548592606       -0.11873508057744        0.88400155420095
C            0.11643944618342        0.36374627253169        1.61330214709047
C            0.32582525956246       -0.40141409522884        2.93019733727951
C            0.00377016771263        1.86953333844776        1.89227023616654
N            1.16299403794869        0.06725796776570        0.62224276312481
C            2.40539887531222        0.36035747256632        0.91859729354633
O            2.89892825661191        0.86068204704098        1.95331885537694
C            3.31435124212226        0.01151569054486       -0.23953618193088
N            2.95774375610606       -0.38336562709169       -1.42492174012331
N            4.10911362489443       -0.56699451288657       -2.15259078783475
C            5.08768743809744       -0.27070537506291       -1.36261786409200
C            6.53731881497920       -0.30913363133940       -1.67125142378795
O            4.66283263513930        0.10506161677577       -0.14450571000212
N           -2.00740149759427        0.68535022957756        0.44111198326779
H           -5.41020287990960        3.31787023477544       -0.96458762613901
H           -5.29176033442940        3.65769987510024        0.78255348069726
H           -6.27139153825745        2.28588907322821        0.20079477672184
H           -0.32243589071818       -3.54176805546355       -1.08474746610728
H           -1.48837577446460       -3.18730149267045       -2.37430635444339
H           -2.06446488739897       -3.60771233084166       -0.74947987970659
H           -0.25029176183123       -1.93021016666098        0.81591952310478
H            0.47271349472316       -1.46410686557656        2.74027496387570
H            1.20108397251374       -0.02111179214472        3.45543322530242
H           -0.54799758786148       -0.27817897976213        3.57124270459042
H           -0.11638462816624        2.41733217486640        0.95636664149742
H           -0.86793203468692        2.06092967224406        2.51968348434996
H            0.89328644886245        2.23115319797106        2.40620373697714
H            0.44081388163544       -0.60494834751453       -0.86794834284339
H            7.05471970524372       -0.95959637774877       -0.96696523933836
H            6.96820642622601        0.68840831400964       -1.58822331120663
H            6.68432036220237       -0.68148833682927       -2.68203313155720

          :  Hamiltonian                  GFN1-xTB          :
         :: total energy             -83.647717970301 Eh    ::
         :: gradient norm              0.000854611841 Eh/a0 ::
         :: HOMO-LUMO gap              2.352499439091 eV    ::
         :: SCC energy               -84.373662719938 Eh    ::
         :: -> Gsolv                  -0.275638085080 Eh    ::
         :: repulsion energy           0.752421732625 Eh    ::

    * Orbital Energies and Occupations

         #    Occupation            Energy/Eh            Energy/eV
      -------------------------------------------------------------
         1        2.0000           -0.8202343             -22.3197
       ...           ...                  ...                  ...
        56        2.0000           -0.4393448             -11.9552
        57        2.0000           -0.4342449             -11.8164
        58        2.0000           -0.4255696             -11.5803
        59        2.0000           -0.4172171             -11.3531
        60        2.0000           -0.4135396             -11.2530
        61        2.0000           -0.4107906             -11.1782
        62        2.0000           -0.3982277             -10.8363
        63        2.0000           -0.3847061             -10.4684
        64        2.0000           -0.3771235             -10.2621
        65        2.0000           -0.3660261              -9.9601
        66        2.0000           -0.3531496              -9.6097
        67        2.0000           -0.3514844              -9.5644
        68        2.0000           -0.3303655              -8.9897 (HOMO)
        69                         -0.2439127              -6.6372 (LUMO)
        70                         -0.2200548              -5.9880
        71                         -0.2197805              -5.9805
        72                         -0.2024450              -5.5088
        73                         -0.1286393              -3.5005
        74                         -0.1280559              -3.4846
        75                         -0.1144888              -3.1154
        76                         -0.1045043              -2.8437
        77                         -0.0930181              -2.5312
        78                         -0.0878138              -2.3895
        79                         -0.0825616              -2.2466
       ...                                ...                  ...
       134                          0.7569727              20.5983
      -------------------------------------------------------------
                  HL-Gap            0.0864528 Eh            2.3525 eV

Wiberg/Mayer (AO) data.
largest (>0.10) Wiberg bond orders for each atom

     #   Z sym  total        # sym  WBO       # sym  WBO       # sym  WBO
 ---------------------------------------------------------------------------
     1   6 C    3.914 --    27 H    0.987    26 H    0.981    28 H    0.980
                             2 O    0.944
     2   8 O    2.104 --     3 C    0.976     1 C    0.944
     3   6 C    3.853 --     4 O    1.530     5 C    1.214     2 O    0.976
     4   8 O    1.826 --     3 C    1.530
     5   6 C    3.892 --     6 C    1.311     3 C    1.214    25 N    1.047
                             7 O    0.117
     6   6 C    3.922 --     7 O    1.524     5 C    1.311     8 C    0.907
     7   8 O    1.825 --     6 C    1.524     5 C    0.117
     8   6 C    3.891 --     9 C    0.988    10 O    0.949    11 N    0.945
                             6 C    0.907
     9   6 C    3.997 --    31 H    0.989     8 C    0.988    29 H    0.987
                            30 H    0.984
    10   8 O    1.876 --     8 C    0.949    39 H    0.788
    11   7 N    3.128 --    12 C    1.043     8 C    0.945    32 H    0.933
    12   6 C    3.937 --    25 N    1.738    11 N    1.043    13 C    0.970
    13   6 C    3.969 --    15 C    0.990    14 C    0.983    12 C    0.970
                            16 N    0.966
    14   6 C    3.994 --    35 H    0.988    13 C    0.983    33 H    0.983
                            34 H    0.982
    15   6 C    3.996 --    13 C    0.990    37 H    0.988    36 H    0.986
                            38 H    0.984
    16   7 N    3.004 --    17 C    1.482    13 C    0.966    18 O    0.223
                            39 H    0.130
    17   6 C    3.940 --    16 N    1.482    18 O    1.431    19 C    0.955
    18   8 O    1.782 --    17 C    1.431    16 N    0.223
    19   6 C    3.832 --    20 N    1.626    24 O    1.043    17 C    0.955
    20   7 N    2.986 --    19 C    1.626    21 N    1.167
    21   7 N    2.977 --    22 C    1.638    20 N    1.167
    22   6 C    3.886 --    21 N    1.638    24 O    1.076    23 C    1.025
    23   6 C    3.992 --    22 C    1.025    42 H    0.985    40 H    0.970
                            41 H    0.969
    24   8 O    2.302 --    22 C    1.076    19 C    1.043
    25   7 N    3.015 --    12 C    1.738     5 C    1.047
    26   1 H    1.018 --     1 C    0.981
    27   1 H    1.019 --     1 C    0.987
    28   1 H    1.019 --     1 C    0.980
    29   1 H    1.010 --     9 C    0.987
    30   1 H    1.019 --     9 C    0.984
    31   1 H    1.012 --     9 C    0.989
    32   1 H    0.981 --    11 N    0.933
    33   1 H    1.008 --    14 C    0.983
    34   1 H    1.021 --    14 C    0.982
    35   1 H    1.008 --    14 C    0.988
    36   1 H    1.020 --    15 C    0.986
    37   1 H    1.013 --    15 C    0.988
    38   1 H    1.020 --    15 C    0.984
    39   1 H    0.948 --    10 O    0.788    16 N    0.130
    40   1 H    1.001 --    23 C    0.970
    41   1 H    1.001 --    23 C    0.969
    42   1 H    1.003 --    23 C    0.985
 ---------------------------------------------------------------------------

           -------------------------------------------------
          | TOTAL ENERGY              -83.647717970301 Eh   |
          | GRADIENT NORM               0.000854611841 Eh/α |
          | HOMO-LUMO GAP               2.352499439091 eV   |
           -------------------------------------------------

 * finished run on 2023/06/21 at 17:14:22.273
