   * xtb version 6.5.1 (579679a) compiled by 'ehlert@majestix' on 2022-07-11
          program call               : /lustre/hpc/kemi/ree/PhD/git/ReactivityQM/dep/xtb-6.5.1/bin/xtb --gfn 1 /lustre/hpc/kemi/ree/PhD/git/ReactivityQM/calculations/R01/reac02prodE06/conf19/R01_reac02prodE06_conf19_gfn1.xyz --opt --vfukui --chrg -1 --uhf 0 --alpb DMSO

   ID    Z sym.   atoms
    1    6 C      1, 3, 5, 6, 8, 9, 12-15
    2    8 O      2, 4, 7, 10
    3    7 N      11, 16, 17
    4    1 H      18-33

      * Solvation model:               ALPB
        Solvent                        DMSO
        Solvent mass                       7.8130E+01 g/mol
          :  Hamiltonian                  GFN1-xTB          :
 * total energy  :   -58.5330410 Eh     change       -0.9691803E-11 Eh
 * total energy  :   -58.5404097 Eh     change       -0.7368669E-02 Eh
 * total energy  :   -58.5430086 Eh     change       -0.2598926E-02 Eh
 * total energy  :   -58.5434575 Eh     change       -0.4488693E-03 Eh
 * total energy  :   -58.5436663 Eh     change       -0.2088791E-03 Eh
 * total energy  :   -58.5437230 Eh     change       -0.5664214E-04 Eh
 * total energy  :   -58.5437655 Eh     change       -0.4249226E-04 Eh
 * total energy  :   -58.5437876 Eh     change       -0.2209299E-04 Eh
 * total energy  :   -58.5438156 Eh     change       -0.2803263E-04 Eh
 * total energy  :   -58.5438431 Eh     change       -0.2752681E-04 Eh
 * total energy  :   -58.5438642 Eh     change       -0.2110452E-04 Eh
 * total energy  :   -58.5438794 Eh     change       -0.1517794E-04 Eh
 * total energy  :   -58.5438900 Eh     change       -0.1063344E-04 Eh
 * total energy  :   -58.5438976 Eh     change       -0.7597851E-05 Eh
 * total energy  :   -58.5439054 Eh     change       -0.7788279E-05 Eh
 * total energy  :   -58.5439091 Eh     change       -0.3706367E-05 Eh
 * total energy  :   -58.5439119 Eh     change       -0.2767385E-05 Eh
   *** GEOMETRY OPTIMIZATION CONVERGED AFTER 17 ITERATIONS ***

 final structure:
================
33
 xtb: 6.5.1 (579679a)
C            3.70083828185138        2.00421947677218        2.05447450439578
O            2.51212799392354        1.50901265789160        1.44957064204876
C            2.68197848639648        0.67131569555246        0.40495679617260
O            3.81253293713690        0.37987131366950        0.01059217316944
C            1.45133083185547        0.16214718037121       -0.17295005331298
C            1.47633380559213       -0.71144130572899       -1.22288523477860
O            2.61678441815410       -1.14008528074315       -1.78660437997711
C            0.17601061109141       -1.18341696237115       -1.94091190715924
C            0.27905002507395       -2.72936192354888       -2.15747175763076
O           -0.12381302773293       -0.49060040679851       -2.98978638708768
N           -0.89618209602284       -1.04183463679900       -0.81736758883996
C           -0.84364993075933        0.01614368120078        0.02842920741945
C           -2.15355747774747        0.49920008231631        0.64850563425873
C           -2.90016573746228       -0.66457660109932        1.31076302787386
C           -3.02589631775913        1.14632178757549       -0.43699061133436
N           -1.87742314177206        1.50545408598748        1.67293277394826
N            0.24263104999178        0.60693085196159        0.39773304937552
H            3.39434643152915        2.67288199720691        2.85743354227672
H            4.29482116343107        1.18110007777183        2.46282748644357
H            4.30638990030121        2.55078771887431        1.32538450504533
H            3.39168010139804       -0.73945141890043       -1.32591956733585
H            1.10856567796382       -2.93667951232924       -2.83165323197251
H           -0.64444161694642       -3.07958485835001       -2.61440300741262
H            0.43689421831064       -3.24653382460655       -1.21248556995129
H           -1.81424291639784       -1.27027491364015       -1.17231682235310
H           -3.21189985062465       -1.39763712169784        0.56810193209571
H           -2.25747456210783       -1.15905088196813        2.03931011717864
H           -3.78575497704818       -0.28982655184383        1.82393747893231
H           -3.28287579422651        0.41893589016201       -1.20633599782484
H           -3.94465541169257        1.52671179711695        0.00876422179389
H           -2.49307662049866        1.97656095291528       -0.90153167397689
H           -1.39044003748593        1.05939028483043        2.44245620634974
H           -1.23676641771662        2.19336966824908        1.28343949216916

          :  Hamiltonian                  GFN1-xTB          :
         :: total energy             -58.543911908051 Eh    ::
         :: gradient norm              0.000636223633 Eh/a0 ::
         :: HOMO-LUMO gap              2.257520311557 eV    ::
         :: SCC energy               -59.079683734294 Eh    ::
         :: -> Gsolv                  -0.104238092789 Eh    ::
         :: repulsion energy           0.554486815966 Eh    ::

    * Orbital Energies and Occupations

         #    Occupation            Energy/Eh            Energy/eV
      -------------------------------------------------------------
         1        2.0000           -0.8068606             -21.9558
       ...           ...                  ...                  ...
        36        2.0000           -0.4728688             -12.8674
        37        2.0000           -0.4711779             -12.8214
        38        2.0000           -0.4673409             -12.7170
        39        2.0000           -0.4641130             -12.6292
        40        2.0000           -0.4535849             -12.3427
        41        2.0000           -0.4497688             -12.2388
        42        2.0000           -0.4360550             -11.8657
        43        2.0000           -0.4155314             -11.3072
        44        2.0000           -0.3915045             -10.6534
        45        2.0000           -0.3854426             -10.4884
        46        2.0000           -0.3611650              -9.8278
        47        2.0000           -0.3475661              -9.4578
        48        2.0000           -0.3446170              -9.3775 (HOMO)
        49                         -0.2616547              -7.1200 (LUMO)
        50                         -0.2137551              -5.8166
        51                         -0.1309501              -3.5633
        52                         -0.1244480              -3.3864
        53                         -0.1122921              -3.0556
        54                         -0.1065649              -2.8998
        55                         -0.0875092              -2.3812
        56                         -0.0812270              -2.2103
        57                         -0.0691307              -1.8811
        58                         -0.0617634              -1.6807
        59                         -0.0609292              -1.6580
       ...                                ...                  ...
       100                          0.6986558              19.0114
      -------------------------------------------------------------
                  HL-Gap            0.0829623 Eh            2.2575 eV

Wiberg/Mayer (AO) data.
largest (>0.10) Wiberg bond orders for each atom

     #   Z sym  total        # sym  WBO       # sym  WBO       # sym  WBO
 ---------------------------------------------------------------------------
     1   6 C    3.892 --    18 H    0.987    19 H    0.980    20 H    0.980
                             2 O    0.918
     2   8 O    2.172 --     3 C    1.069     1 C    0.918     4 O    0.106
     3   6 C    3.839 --     4 O    1.541     5 C    1.105     2 O    1.069
     4   8 O    1.898 --     3 C    1.541     2 O    0.106
     5   6 C    3.946 --     6 C    1.539     3 C    1.105    17 N    1.069
     6   6 C    3.863 --     5 C    1.539     7 O    1.108     8 C    0.900
     7   8 O    2.079 --     6 C    1.108    21 H    0.788
     8   6 C    3.925 --    10 O    1.242     9 C    0.938     6 C    0.900
                            11 N    0.776
     9   6 C    3.992 --    24 H    0.991    23 H    0.987    22 H    0.986
                             8 C    0.938
    10   8 O    1.545 --     8 C    1.242
    11   7 N    3.250 --    12 C    1.221    25 H    0.924     8 C    0.776
                            17 N    0.153
    12   6 C    3.947 --    17 N    1.599    11 N    1.221    13 C    0.962
    13   6 C    3.968 --    14 C    0.993    15 C    0.988    16 N    0.987
                            12 C    0.962
    14   6 C    3.996 --    13 C    0.993    28 H    0.986    27 H    0.986
                            26 H    0.985
    15   6 C    3.996 --    13 C    0.988    30 H    0.986    31 H    0.986
                            29 H    0.985
    16   7 N    2.951 --    13 C    0.987    32 H    0.950    33 H    0.945
    17   7 N    2.979 --    12 C    1.599     5 C    1.069    11 N    0.153
    18   1 H    1.015 --     1 C    0.987
    19   1 H    1.012 --     1 C    0.980
    20   1 H    1.013 --     1 C    0.980
    21   1 H    0.876 --     7 O    0.788
    22   1 H    1.016 --     9 C    0.986
    23   1 H    1.014 --     9 C    0.987
    24   1 H    1.014 --     9 C    0.991
    25   1 H    0.971 --    11 N    0.924
    26   1 H    1.006 --    14 C    0.985
    27   1 H    1.005 --    14 C    0.986
    28   1 H    1.007 --    14 C    0.986
    29   1 H    1.005 --    15 C    0.985
    30   1 H    1.009 --    15 C    0.986
    31   1 H    1.005 --    15 C    0.986
    32   1 H    0.976 --    16 N    0.950
    33   1 H    0.986 --    16 N    0.945
 ---------------------------------------------------------------------------

           -------------------------------------------------
          | TOTAL ENERGY              -58.543911908051 Eh   |
          | GRADIENT NORM               0.000636223633 Eh/α |
          | HOMO-LUMO GAP               2.257520311557 eV   |
           -------------------------------------------------

 * finished run on 2023/06/20 at 15:00:32.209
