   * xtb version 6.5.1 (579679a) compiled by 'ehlert@majestix' on 2022-07-11
          program call               : /lustre/hpc/kemi/ree/PhD/git/ReactivityQM/dep/xtb-6.5.1/bin/xtb --gfn 1 /lustre/hpc/kemi/ree/PhD/git/ReactivityQM/calculations/R02methylcation/reac01prodN02/conf11/R02methylcation_reac01prodN02_conf11_gfn1.xyz --opt --vfukui --chrg 0 --uhf 0 --alpb DMSO

   ID    Z sym.   atoms
    1    6 C      1, 3, 5, 7-10, 12, 14, 15, 18, 19, 22, 24
    2    8 O      2, 4, 13, 20, 23, 25
    3    7 N      6, 11, 16, 17, 21
    4    1 H      26-42

      * Solvation model:               ALPB
        Solvent                        DMSO
        Solvent mass                       7.8130E+01 g/mol
          :  Hamiltonian                  GFN1-xTB          :
 * total energy  :   -82.9415982 Eh     change       -0.5839240E-10 Eh
 * total energy  :   -82.9598167 Eh     change       -0.1821856E-01 Eh
 * total energy  :   -82.9676465 Eh     change       -0.7829794E-02 Eh
 * total energy  :   -82.9688789 Eh     change       -0.1232346E-02 Eh
 * total energy  :   -82.9696758 Eh     change       -0.7968935E-03 Eh
 * total energy  :   -82.9699789 Eh     change       -0.3031450E-03 Eh
 * total energy  :   -82.9702722 Eh     change       -0.2932822E-03 Eh
 * total energy  :   -82.9704846 Eh     change       -0.2123623E-03 Eh
 * total energy  :   -82.9706316 Eh     change       -0.1470833E-03 Eh
 * total energy  :   -82.9707552 Eh     change       -0.1235066E-03 Eh
 * total energy  :   -82.9714923 Eh     change       -0.1962009E-04 Eh
 * total energy  :   -82.9715062 Eh     change       -0.1390551E-04 Eh
 * total energy  :   -82.9715164 Eh     change       -0.1012750E-04 Eh
 * total energy  :   -82.9715280 Eh     change       -0.1162349E-04 Eh
 * total energy  :   -82.9715356 Eh     change       -0.7593223E-05 Eh
 * total energy  :   -82.9715407 Eh     change       -0.5169340E-05 Eh
 * total energy  :   -82.9715477 Eh     change       -0.6987700E-05 Eh
 * total energy  :   -82.9715544 Eh     change       -0.6716541E-05 Eh
 * total energy  :   -82.9715589 Eh     change       -0.4466768E-05 Eh
   *** GEOMETRY OPTIMIZATION CONVERGED AFTER 42 ITERATIONS ***

 final structure:
================
42
 xtb: 6.5.1 (579679a)
C            6.37230830482691       -1.23986133108067        2.30040105161664
O            5.24975722111675       -0.37912352774162        2.15054817314757
C            4.32731750314192       -0.76479355146603        1.23980873029537
O            4.46878935389571       -1.79883097923093        0.60021968919869
C            3.19288453081273        0.14234448661321        1.10025155651191
N            2.29188047469900       -0.28008457910104        0.14518918992992
C            1.23856754436633        0.39894294515905       -0.11059641686649
C            0.28578461758816       -0.05748307089234       -1.19428891361773
C            0.32035744675026        0.92907497284450       -2.36826678608211
C            0.64919062907599       -1.47666052448543       -1.63333097769283
N           -1.07816349382994       -0.05220132487537       -0.60345784861288
C           -2.19023243786094       -0.38036280473131       -1.21036577154590
O           -2.14789646548231       -0.79506547799455       -2.44398069519355
C           -3.31821899227521       -1.18601005412241       -3.17746970325299
C           -3.41943556100667       -0.25954154781226       -0.46371913880250
N           -4.64489485382940       -0.53936027732004       -0.81825952294152
N           -5.43421861354770       -0.24361157727651        0.23187104339870
C           -4.65787331653586        0.20473094001302        1.18075469821332
C           -5.04860246261994        0.66302916935048        2.52724516371844
O           -3.37444032819668        0.21487800501874        0.79943003549350
N            0.94876825146703        1.58224791141209        0.54233367977244
C            1.75206368475897        2.11826092989171        1.52502840809464
O            1.42609081845950        3.16650041102583        2.06761035965478
C            3.00973926558991        1.33713752116212        1.84819510123614
O            3.77312730680380        1.78277589373087        2.71895992383415
H            7.00717545374406       -0.80492850543505        3.07149987188157
H            6.92787245284901       -1.31546344938774        1.36047718679416
H            6.05283764838244       -2.24185601204830        2.60309648234113
H           -0.31894744848710        0.59036459942767       -3.17922234740371
H           -0.01399988648302        1.91129960030435       -2.04092714570140
H            1.34374519898075        1.00447890590105       -2.73381905354229
H            0.52867221592330       -2.16537966983542       -0.79875674599642
H            0.02594784364882       -1.80010978569521       -2.46185444144973
H            1.69281696570228       -1.48447662063604       -1.94652906684690
H           -1.16767654503353        0.25669293629207        0.35679824456477
H           -4.00519489016526       -0.34282917542693       -3.26141947868083
H           -3.81422118163371       -2.01759451397732       -2.67475889930740
H           -2.95772742414459       -1.48857600331953       -4.15872694310345
H           -4.57304360163791        0.03734521041761        3.28322493752905
H           -4.71050643822539        1.68804382619403        2.68066368816802
H           -6.12927844094707        0.61073036248831        2.63411488830571
H            0.11887864935555        2.09879473664592        0.31202879293414

          :  Hamiltonian                  GFN1-xTB          :
         :: total energy             -82.971558912050 Eh    ::
         :: gradient norm              0.000721779310 Eh/a0 ::
         :: HOMO-LUMO gap              0.214158896317 eV    ::
         :: SCC energy               -83.747799512464 Eh    ::
         :: -> Gsolv                  -0.104058060098 Eh    ::
         :: repulsion energy           0.801589037402 Eh    ::

    * Orbital Energies and Occupations

         #    Occupation            Energy/Eh            Energy/eV
      -------------------------------------------------------------
         1        2.0000           -0.8979724             -24.4351
       ...           ...                  ...                  ...
        55        2.0000           -0.5076500             -13.8139
        56        2.0000           -0.5029467             -13.6859
        57        2.0000           -0.4982034             -13.5568
        58        2.0000           -0.4919941             -13.3878
        59        2.0000           -0.4836592             -13.1610
        60        2.0000           -0.4798105             -13.0563
        61        2.0000           -0.4699633             -12.7884
        62        2.0000           -0.4670225             -12.7083
        63        2.0000           -0.4520470             -12.3008
        64        2.0000           -0.4438658             -12.0782
        65        2.0000           -0.4298659             -11.6972
        66        2.0000           -0.3889707             -10.5844
        67        1.9687           -0.3768723             -10.2552 (HOMO)
        68        0.0313           -0.3690021             -10.0411 (LUMO)
        69                         -0.2843656              -7.7380
        70                         -0.2790114              -7.5923
        71                         -0.2546454              -6.9293
        72                         -0.2494595              -6.7881
        73                         -0.2057182              -5.5979
        74                         -0.1587163              -4.3189
        75                         -0.1522011              -4.1416
        76                         -0.1368327              -3.7234
        77                         -0.1341239              -3.6497
        78                         -0.1238647              -3.3705
       ...                                ...                  ...
       134                          0.7545388              20.5320
      -------------------------------------------------------------
                  HL-Gap            0.0078702 Eh            0.2142 eV

Wiberg/Mayer (AO) data.
largest (>0.10) Wiberg bond orders for each atom

     #   Z sym  total        # sym  WBO       # sym  WBO       # sym  WBO
 ---------------------------------------------------------------------------
     1   6 C    3.894 --    26 H    0.987    27 H    0.980    28 H    0.980
                             2 O    0.920
     2   8 O    2.167 --     3 C    1.060     1 C    0.920     4 O    0.113
     3   6 C    3.850 --     4 O    1.584     5 C    1.099     2 O    1.060
     4   8 O    1.855 --     3 C    1.584     2 O    0.113
     5   6 C    3.895 --    24 C    1.260     6 N    1.166     3 C    1.099
                            25 O    0.124
     6   7 N    3.036 --     7 C    1.628     5 C    1.166
     7   6 C    3.924 --     6 N    1.628    21 N    1.089     8 C    0.978
     8   6 C    3.893 --    10 C    0.990     9 C    0.979     7 C    0.978
                            11 N    0.874
     9   6 C    3.981 --    30 H    0.983    29 H    0.982    31 H    0.981
                             8 C    0.979
    10   6 C    3.983 --     8 C    0.990    33 H    0.984    32 H    0.984
                            34 H    0.979
    11   7 N    3.471 --    12 C    1.455    35 H    0.874     8 C    0.874
                            13 O    0.108
    12   6 C    3.880 --    11 N    1.455    13 O    1.188    15 C    1.089
    13   8 O    2.271 --    12 C    1.188    14 C    0.864    11 N    0.108
    14   6 C    3.831 --    38 H    0.980    37 H    0.974    36 H    0.974
                            13 O    0.864
    15   6 C    3.882 --    16 N    1.543    12 C    1.089    20 O    1.047
    16   7 N    3.015 --    15 C    1.543    17 N    1.247
    17   7 N    2.986 --    18 C    1.554    16 N    1.247
    18   6 C    3.847 --    17 N    1.554    20 O    1.086    19 C    1.039
    19   6 C    3.979 --    18 C    1.039    41 H    0.980    40 H    0.956
                            39 H    0.954
    20   8 O    2.329 --    18 C    1.086    15 C    1.047
    21   7 N    3.412 --    22 C    1.143     7 C    1.089    42 H    0.896
                            23 O    0.133
    22   6 C    3.871 --    23 O    1.599    21 N    1.143    24 C    0.962
    23   8 O    1.875 --    22 C    1.599    21 N    0.133
    24   6 C    3.937 --    25 O    1.538     5 C    1.260    22 C    0.962
    25   8 O    1.833 --    24 C    1.538     5 C    0.124
    26   1 H    1.015 --     1 C    0.987
    27   1 H    1.013 --     1 C    0.980
    28   1 H    1.013 --     1 C    0.980
    29   1 H    1.003 --     9 C    0.982
    30   1 H    0.999 --     9 C    0.983
    31   1 H    0.999 --     9 C    0.981
    32   1 H    1.005 --    10 C    0.984
    33   1 H    1.005 --    10 C    0.984
    34   1 H    1.012 --    10 C    0.979
    35   1 H    0.925 --    11 N    0.874
    36   1 H    1.008 --    14 C    0.974
    37   1 H    1.009 --    14 C    0.974
    38   1 H    1.003 --    14 C    0.980
    39   1 H    0.992 --    19 C    0.954
    40   1 H    0.992 --    19 C    0.956
    41   1 H    0.995 --    19 C    0.980
    42   1 H    0.940 --    21 N    0.896
 ---------------------------------------------------------------------------

           -------------------------------------------------
          | TOTAL ENERGY              -82.971558912050 Eh   |
          | GRADIENT NORM               0.000721779310 Eh/α |
          | HOMO-LUMO GAP               0.214158896317 eV   |
           -------------------------------------------------

 * finished run on 2023/06/21 at 17:31:15.623
