   * xtb version 6.5.1 (579679a) compiled by 'ehlert@majestix' on 2022-07-11
          program call               : /lustre/hpc/kemi/ree/PhD/git/ReactivityQM/dep/xtb-6.5.1/bin/xtb --gfn 1 /lustre/hpc/kemi/ree/PhD/git/ReactivityQM/calculations/R02deprot/reac01prodE06/conf07/R02deprot_reac01prodE06_conf07_gfn1.xyz --opt --vfukui --chrg -2 --uhf 0 --alpb DMSO

   ID    Z sym.   atoms
    1    6 C      1, 3, 5, 6, 8, 11-15, 17, 19, 22, 23
    2    8 O      2, 4, 7, 9, 18, 24
    3    7 N      10, 16, 20, 21, 25
    4    1 H      26-42

      * Solvation model:               ALPB
        Solvent                        DMSO
        Solvent mass                       7.8130E+01 g/mol
          :  Hamiltonian                  GFN1-xTB          :
 * total energy  :   -83.5801441 Eh     change       -0.3026926E-08 Eh
 * total energy  :   -83.5923627 Eh     change       -0.1221856E-01 Eh
 * total energy  :   -83.5975648 Eh     change       -0.5202120E-02 Eh
 * total energy  :   -83.5987506 Eh     change       -0.1185784E-02 Eh
 * total energy  :   -83.5994564 Eh     change       -0.7058235E-03 Eh
 * total energy  :   -83.5997434 Eh     change       -0.2870182E-03 Eh
 * total energy  :   -83.5999423 Eh     change       -0.1988226E-03 Eh
 * total energy  :   -83.6001225 Eh     change       -0.1802017E-03 Eh
 * total energy  :   -83.6002857 Eh     change       -0.1632199E-03 Eh
 * total energy  :   -83.6004193 Eh     change       -0.1336013E-03 Eh
 * total energy  :   -83.6010744 Eh     change       -0.8047392E-05 Eh
 * total energy  :   -83.6010798 Eh     change       -0.5328032E-05 Eh
 * total energy  :   -83.6010844 Eh     change       -0.4588163E-05 Eh
 * total energy  :   -83.6010921 Eh     change       -0.7718016E-05 Eh
 * total energy  :   -83.6011037 Eh     change       -0.1158737E-04 Eh
 * total energy  :   -83.6011123 Eh     change       -0.8617938E-05 Eh
 * total energy  :   -83.6011199 Eh     change       -0.7664710E-05 Eh
 * total energy  :   -83.6011275 Eh     change       -0.7557203E-05 Eh
 * total energy  :   -83.6011307 Eh     change       -0.3158048E-05 Eh
   *** GEOMETRY OPTIMIZATION CONVERGED AFTER 39 ITERATIONS ***

 final structure:
================
42
 xtb: 6.5.1 (579679a)
C           -4.44089523251856        3.28260491679557       -0.30011766576819
O           -4.15227990703035        1.92696379884071        0.01930942375218
C           -2.83760065621797        1.55966154905145       -0.09055726754415
O           -2.01223110457448        2.38523578811882       -0.45078610527981
C           -2.54811239779834        0.15863489661773        0.25759624164357
C           -3.49868095771274       -0.81751918763038        0.52128277448048
O           -4.86838195613250       -0.60855873397215        0.57008346617580
C           -3.07685187155954       -2.24493646629839        0.60668859302877
O           -3.95035185969331       -3.16021360772088        0.59793436331236
N           -1.77718705637529       -2.50419384014092        0.64485089299176
C           -0.83404310470839       -1.41718188389888        0.74109600873202
C           -0.41370914646040       -1.26520727938508        2.23692190775295
C            0.43106349658277       -1.82915263112620       -0.11389082237614
C            1.08426857859378       -3.10110458216628        0.42635739541837
C           -0.03367800865267       -2.05249293394525       -1.56162452779944
N            1.32723389504408       -0.67815824506191       -0.09014550349749
C            2.66568871947064       -0.65529704551944       -0.20784708235763
O            3.40602934186775       -1.64398479634623       -0.29918808740585
C            3.17994965052573        0.72468089924101       -0.19746076926753
N            2.46908227696085        1.82436140944186       -0.12126610817547
N            3.35148631199507        2.86850193997021       -0.17473425899339
C            4.53313062710271        2.35381736716036       -0.27983828646527
C            5.82400232623950        3.07543379246272       -0.37007019719430
O            4.50829363402605        1.00683863544424       -0.30302575450065
N           -1.22226356787326       -0.10779767675311        0.25836487256633
H           -4.18405217516153        3.49794374198708       -1.34186473817033
H           -3.87850775746921        3.95947180513368        0.35035099244838
H           -5.50826541427076        3.42931004819953       -0.14706800197509
H           -5.09194892446901        0.31800297456993        0.41405562924222
H           -1.22465635813903       -0.78636236609483        2.78482431365307
H           -0.22458104596805       -2.24139960106557        2.68202844409551
H            0.47798794037947       -0.64465970493289        2.32203653955019
H            0.29437048873887       -3.82555670272837        0.63705264778232
H            1.63878532193369       -2.90553099615698        1.34324108683117
H            1.76968189667875       -3.53519624121717       -0.30115679677393
H           -0.75831882241319       -2.86793090674272       -1.58329032089111
H           -0.50978057087305       -1.14652030175430       -1.93964942059723
H            0.80865842892295       -2.30483334219556       -2.20548750752469
H            0.82494346149829        0.21194476490705       -0.09860943554862
H            6.32704480903635        2.83413112045864       -1.30600225469788
H            6.47820462713760        2.77975704250821        0.44924347988148
H            5.64647306334264        4.14649258194825       -0.32175016053270

          :  Hamiltonian                  GFN1-xTB          :
         :: total energy             -83.601130654667 Eh    ::
         :: gradient norm              0.000740419057 Eh/a0 ::
         :: HOMO-LUMO gap              0.189786891625 eV    ::
         :: SCC energy               -84.324064338561 Eh    ::
         :: -> Gsolv                  -0.281523780958 Eh    ::
         :: repulsion energy           0.750000476863 Eh    ::

    * Orbital Energies and Occupations

         #    Occupation            Energy/Eh            Energy/eV
      -------------------------------------------------------------
         1        2.0000           -0.8277831             -22.5251
       ...           ...                  ...                  ...
        56        2.0000           -0.4387283             -11.9384
        57        2.0000           -0.4288960             -11.6709
        58        2.0000           -0.4249647             -11.5639
        59        2.0000           -0.4204307             -11.4405
        60        2.0000           -0.4163966             -11.3307
        61        2.0000           -0.4066217             -11.0647
        62        2.0000           -0.3992483             -10.8641
        63        2.0000           -0.3909325             -10.6378
        64        2.0000           -0.3731557             -10.1541
        65        2.0000           -0.3459676              -9.4143
        66        2.0000           -0.3208861              -8.7318
        67        2.0000           -0.3126256              -8.5070
        68        1.9503           -0.2795124              -7.6059 (HOMO)
        69        0.0497           -0.2725378              -7.4161 (LUMO)
        70                         -0.2385346              -6.4909
        71                         -0.2284367              -6.2161
        72                         -0.1561856              -4.2500
        73                         -0.1419755              -3.8634
        74                         -0.1318929              -3.5890
        75                         -0.1178106              -3.2058
        76                         -0.0925460              -2.5183
        77                         -0.0856230              -2.3299
        78                         -0.0780649              -2.1243
        79                         -0.0718874              -1.9562
       ...                                ...                  ...
       134                          0.7435027              20.2317
      -------------------------------------------------------------
                  HL-Gap            0.0069745 Eh            0.1898 eV

Wiberg/Mayer (AO) data.
largest (>0.10) Wiberg bond orders for each atom

     #   Z sym  total        # sym  WBO       # sym  WBO       # sym  WBO
 ---------------------------------------------------------------------------
     1   6 C    3.896 --    28 H    0.987    26 H    0.981    27 H    0.981
                             2 O    0.919
     2   8 O    2.159 --     3 C    1.018     1 C    0.919     4 O    0.107
     3   6 C    3.811 --     4 O    1.612     5 C    1.057     2 O    1.018
     4   8 O    1.878 --     3 C    1.612     2 O    0.107
     5   6 C    3.958 --     6 C    1.395    25 N    1.293     3 C    1.057
     6   6 C    3.787 --     5 C    1.395     8 C    1.030     7 O    0.995
                            25 N    0.165
     7   8 O    1.971 --     6 C    0.995    29 H    0.847
     8   6 C    3.936 --    10 N    1.416     9 O    1.397     6 C    1.030
     9   8 O    1.676 --     8 C    1.397    10 N    0.171
    10   7 N    2.853 --     8 C    1.416    11 C    1.006     9 O    0.171
    11   6 C    3.959 --    10 N    1.006    25 N    1.000    12 C    0.953
                            13 C    0.920
    12   6 C    3.984 --    32 H    0.986    30 H    0.986    31 H    0.986
                            11 C    0.953
    13   6 C    3.914 --    14 C    1.003    15 C    0.987    16 N    0.925
                            11 C    0.920
    14   6 C    3.997 --    13 C    1.003    34 H    0.985    35 H    0.984
                            33 H    0.982
    15   6 C    3.995 --    38 H    0.988    13 C    0.987    37 H    0.983
                            36 H    0.982
    16   7 N    3.374 --    17 C    1.265    13 C    0.925    39 H    0.885
                            18 O    0.169
    17   6 C    3.902 --    18 O    1.490    16 N    1.265    19 C    1.029
    18   8 O    1.796 --    17 C    1.490    16 N    0.169
    19   6 C    3.808 --    20 N    1.536    17 C    1.029    24 O    1.023
    20   7 N    2.934 --    19 C    1.536    21 N    1.182
    21   7 N    2.980 --    22 C    1.628    20 N    1.182
    22   6 C    3.853 --    21 N    1.628    24 O    1.067    23 C    1.026
    23   6 C    3.992 --    22 C    1.026    42 H    0.985    41 H    0.969
                            40 H    0.968
    24   8 O    2.260 --    22 C    1.067    19 C    1.023
    25   7 N    2.853 --     5 C    1.293    11 C    1.000     6 C    0.165
    26   1 H    1.015 --     1 C    0.981
    27   1 H    1.015 --     1 C    0.981
    28   1 H    1.015 --     1 C    0.987
    29   1 H    0.899 --     7 O    0.847
    30   1 H    1.017 --    12 C    0.986
    31   1 H    1.019 --    12 C    0.986
    32   1 H    1.017 --    12 C    0.986
    33   1 H    1.032 --    14 C    0.982
    34   1 H    1.013 --    14 C    0.985
    35   1 H    1.021 --    14 C    0.984
    36   1 H    1.026 --    15 C    0.982
    37   1 H    1.026 --    15 C    0.983
    38   1 H    1.008 --    15 C    0.988
    39   1 H    1.005 --    16 N    0.885
    40   1 H    1.000 --    23 C    0.968
    41   1 H    1.000 --    23 C    0.969
    42   1 H    1.002 --    23 C    0.985
 ---------------------------------------------------------------------------

           -------------------------------------------------
          | TOTAL ENERGY              -83.601130654667 Eh   |
          | GRADIENT NORM               0.000740419057 Eh/α |
          | HOMO-LUMO GAP               0.189786891625 eV   |
           -------------------------------------------------

 * finished run on 2023/06/20 at 17:45:03.509
