   * xtb version 6.5.1 (579679a) compiled by 'ehlert@majestix' on 2022-07-11
          program call               : /lustre/hpc/kemi/ree/PhD/git/ReactivityQM/dep/xtb-6.5.1/bin/xtb --gfn 1 /lustre/hpc/kemi/ree/PhD/git/ReactivityQM/calculations/R02deprot/reac01prodN04/conf17/R02deprot_reac01prodN04_conf17_gfn1.xyz --opt --vfukui --chrg 0 --uhf 0 --alpb DMSO

   ID    Z sym.   atoms
    1    6 C      1, 3, 5, 6, 8-11, 13, 15, 18, 19, 22, 24
    2    8 O      2, 4, 14, 20, 23, 25
    3    7 N      7, 12, 16, 17, 21
    4    1 H      26-42

      * Solvation model:               ALPB
        Solvent                        DMSO
        Solvent mass                       7.8130E+01 g/mol
          :  Hamiltonian                  GFN1-xTB          :
 * total energy  :   -82.9329428 Eh     change       -0.3026912E-10 Eh
 * total energy  :   -82.9525336 Eh     change       -0.1959073E-01 Eh
 * total energy  :   -82.9595086 Eh     change       -0.6975023E-02 Eh
 * total energy  :   -82.9611855 Eh     change       -0.1676904E-02 Eh
 * total energy  :   -82.9621722 Eh     change       -0.9866905E-03 Eh
 * total energy  :   -82.9626512 Eh     change       -0.4789822E-03 Eh
 * total energy  :   -82.9632027 Eh     change       -0.5515310E-03 Eh
 * total energy  :   -82.9636801 Eh     change       -0.4774118E-03 Eh
 * total energy  :   -82.9640617 Eh     change       -0.3815743E-03 Eh
 * total energy  :   -82.9643654 Eh     change       -0.3037099E-03 Eh
 * total energy  :   -82.9668020 Eh     change       -0.1955381E-04 Eh
 * total energy  :   -82.9668105 Eh     change       -0.8503243E-05 Eh
 * total energy  :   -82.9668198 Eh     change       -0.9282806E-05 Eh
 * total energy  :   -82.9668275 Eh     change       -0.7785656E-05 Eh
 * total energy  :   -82.9668336 Eh     change       -0.6072123E-05 Eh
 * total energy  :   -82.9668397 Eh     change       -0.6077763E-05 Eh
 * total energy  :   -82.9668466 Eh     change       -0.6886419E-05 Eh
 * total energy  :   -82.9668525 Eh     change       -0.5918781E-05 Eh
 * total energy  :   -82.9668575 Eh     change       -0.4991321E-05 Eh
   *** GEOMETRY OPTIMIZATION CONVERGED AFTER 63 ITERATIONS ***

 final structure:
================
42
 xtb: 6.5.1 (579679a)
C           -1.95376680742262       -3.25295723432228       -0.78304041556068
O           -1.73084069061527       -1.96651001750458       -0.18914708511499
C           -2.70814435609362       -1.11562397905152       -0.10744372571314
O           -3.85021690594797       -1.53910963991018       -0.55319055955493
C           -5.00323113424419       -0.73871347345150       -0.84222467970375
C           -2.38595985129444        0.17467097120937        0.44047775731314
N           -1.04558565779199        0.48428387734290        0.37192968189983
C           -0.65372959338735        1.64541647115456        0.84597332578257
C            0.81748609786887        2.00061779173825        0.69192545389346
C            1.35855393089883        2.57768316494416        2.00566019870761
C            0.94639094493986        3.02014036587202       -0.45066138590032
N            1.53373620206230        0.77355552929360        0.34852767764987
C            2.85449384168601        0.70066283647740        0.13179142174700
O            3.64279405334640        1.63199912605489        0.18866307080018
C            3.27099320227998       -0.69597139843512       -0.17890202829772
N            2.50589772372747       -1.74621480734385       -0.18585310160204
N            3.30150378402471       -2.81018041644306       -0.49686361585041
C            4.50049068525537       -2.33970178402611       -0.65939142997910
C            5.72674970242222       -3.09084220499050       -1.00892143416527
O            4.54642480774597       -1.01222883163793       -0.47122706333953
N           -1.40551314438299        2.58302861317327        1.42526921129806
C           -2.71727109853194        2.34059662711350        1.59510016143483
O           -3.53161109245216        3.08958380389801        2.15304951885412
C           -3.23742491677229        1.06012883832202        1.06834429789402
O           -4.52640934901029        0.85664294549923        1.33104457712954
H           -0.99679597079896       -3.76907232517188       -0.75464089667261
H           -2.29597205975220       -3.12908814556803       -1.81110759073331
H           -2.70356710472982       -3.79984825285423       -0.21024992369964
H           -5.66278022684959       -0.72905288512133        0.02526855158373
H           -4.71210041744293        0.27608664452474       -1.11179815880524
H           -5.49807760157837       -1.22925203667182       -1.67995030990056
H            0.73567902798213        3.41941575348740        2.30586335135544
H            2.38465474566474        2.91839363502645        1.87887190135093
H            1.32756004559971        1.81837743868590        2.78602603068893
H            0.60124087885067        2.57578267166527       -1.38323682427225
H            0.33228343690895        3.89046303969167       -0.22297620877920
H            1.98307380000120        3.33266918832161       -0.56578485677198
H            0.96053272109648       -0.05448978407853        0.22711995449266
H            5.49650314666273       -4.15042392150311       -1.08595257777313
H            6.48973533328620       -2.93591742999553       -0.24629685789050
H            6.12335490502366       -2.73494406746787       -1.95961810480408
H           -4.82113603825379        1.66994430204271        1.81661169100529

          :  Hamiltonian                  GFN1-xTB          :
         :: total energy             -82.966857484608 Eh    ::
         :: gradient norm              0.000485323566 Eh/a0 ::
         :: HOMO-LUMO gap              1.583280324211 eV    ::
         :: SCC energy               -83.734862868496 Eh    ::
         :: -> Gsolv                  -0.057355134605 Eh    ::
         :: repulsion energy           0.793450423625 Eh    ::

    * Orbital Energies and Occupations

         #    Occupation            Energy/Eh            Energy/eV
      -------------------------------------------------------------
         1        2.0000           -0.8896962             -24.2099
       ...           ...                  ...                  ...
        55        2.0000           -0.5027568             -13.6807
        56        2.0000           -0.4913828             -13.3712
        57        2.0000           -0.4889881             -13.3060
        58        2.0000           -0.4794072             -13.0453
        59        2.0000           -0.4685229             -12.7492
        60        2.0000           -0.4595615             -12.5053
        61        2.0000           -0.4593955             -12.5008
        62        2.0000           -0.4543555             -12.3636
        63        2.0000           -0.4478222             -12.1859
        64        2.0000           -0.4377010             -11.9105
        65        2.0000           -0.4339199             -11.8076
        66        2.0000           -0.4065437             -11.0626
        67        2.0000           -0.4048676             -11.0170 (HOMO)
        68                         -0.3466831              -9.4337 (LUMO)
        69                         -0.3043673              -8.2823
        70                         -0.2604151              -7.0863
        71                         -0.2550291              -6.9397
        72                         -0.2440901              -6.6420
        73                         -0.1927327              -5.2445
        74                         -0.1591174              -4.3298
        75                         -0.1490549              -4.0560
        76                         -0.1459815              -3.9724
        77                         -0.1422257              -3.8702
        78                         -0.1149183              -3.1271
       ...                                ...                  ...
       134                          0.7256984              19.7473
      -------------------------------------------------------------
                  HL-Gap            0.0581845 Eh            1.5833 eV

Wiberg/Mayer (AO) data.
largest (>0.10) Wiberg bond orders for each atom

     #   Z sym  total        # sym  WBO       # sym  WBO       # sym  WBO
 ---------------------------------------------------------------------------
     1   6 C    3.843 --    26 H    0.983    28 H    0.975    27 H    0.975
                             2 O    0.871
     2   8 O    2.288 --     3 C    1.226     1 C    0.871
     3   6 C    3.801 --     2 O    1.226     4 O    1.217     6 C    1.147
     4   8 O    2.281 --     3 C    1.217     5 C    0.860
     5   6 C    3.827 --    30 H    0.980    31 H    0.978    29 H    0.968
                             4 O    0.860
     6   6 C    3.952 --    24 C    1.397     7 N    1.164     3 C    1.147
     7   7 N    3.007 --     8 C    1.474     6 C    1.164
     8   6 C    3.951 --     7 N    1.474    21 N    1.346     9 C    0.977
     9   6 C    3.933 --    10 C    0.987     8 C    0.977    11 C    0.977
                            12 N    0.924
    10   6 C    3.991 --     9 C    0.987    34 H    0.986    32 H    0.983
                            33 H    0.983
    11   6 C    3.991 --    35 H    0.986    36 H    0.985    37 H    0.982
                             9 C    0.977
    12   7 N    3.371 --    13 C    1.284     9 C    0.924    38 H    0.880
                            14 O    0.185
    13   6 C    3.922 --    14 O    1.575    12 N    1.284    15 C    0.982
    14   8 O    1.894 --    13 C    1.575    12 N    0.185
    15   6 C    3.871 --    16 N    1.615    20 O    1.063    13 C    0.982
    16   7 N    3.010 --    15 C    1.615    17 N    1.194
    17   7 N    2.979 --    18 C    1.610    16 N    1.194
    18   6 C    3.872 --    17 N    1.610    20 O    1.082    19 C    1.031
    19   6 C    3.987 --    18 C    1.031    39 H    0.983    40 H    0.965
                            41 H    0.963
    20   8 O    2.328 --    18 C    1.082    15 C    1.063
    21   7 N    2.997 --     8 C    1.346    22 C    1.270    23 O    0.133
    22   6 C    3.931 --    23 O    1.498    21 N    1.270    24 C    1.031
    23   8 O    1.853 --    22 C    1.498    21 N    0.133
    24   6 C    3.893 --     6 C    1.397    25 O    1.128    22 C    1.031
    25   8 O    2.111 --    24 C    1.128    42 H    0.774
    26   1 H    1.006 --     1 C    0.983
    27   1 H    1.001 --     1 C    0.975
    28   1 H    1.002 --     1 C    0.975
    29   1 H    1.013 --     5 C    0.968
    30   1 H    1.003 --     5 C    0.980
    31   1 H    1.005 --     5 C    0.978
    32   1 H    1.016 --    10 C    0.983
    33   1 H    1.011 --    10 C    0.983
    34   1 H    1.004 --    10 C    0.986
    35   1 H    1.004 --    11 C    0.986
    36   1 H    1.007 --    11 C    0.985
    37   1 H    1.010 --    11 C    0.982
    38   1 H    0.976 --    12 N    0.880
    39   1 H    0.999 --    19 C    0.983
    40   1 H    0.997 --    19 C    0.965
    41   1 H    0.997 --    19 C    0.963
    42   1 H    0.847 --    25 O    0.774
 ---------------------------------------------------------------------------

           -------------------------------------------------
          | TOTAL ENERGY              -82.966857484608 Eh   |
          | GRADIENT NORM               0.000485323566 Eh/α |
          | HOMO-LUMO GAP               1.583280324211 eV   |
           -------------------------------------------------

 * finished run on 2023/06/20 at 18:09:42.268
