                         Program Version 5.0.1 -  RELEASE  -
|  1> # ORCA input file
|  2> ! SP r2SCAN-3c CPCM
|  3>
|  4> %maxcore 1875.0
|  5> %pal nprocs 4 end
|  6> %cpcm smd true SMDsolvent "DMSO" end
|  7>
|  8> *xyz 0 1
|  9> C      -6.611649    0.280186    0.309856
| 10> O      -5.194837    0.090642    0.230993
| 11> C      -4.731950   -0.464551   -0.878215
| 12> O      -5.450029   -0.818498   -1.797853
| 13> C      -3.255208   -0.606210   -0.912372
| 14> N      -2.551741   -0.204386    0.157768
| 15> C      -1.219451   -0.303455    0.092709
| 16> C      -0.481859    0.161123    1.333784
| 17> C      -0.769493   -0.827986    2.473519
| 18> C      -0.940867    1.575841    1.710471
| 19> N       0.942551    0.165647    1.014405
| 20> C       1.904689    0.519865    1.874678
| 21> O       1.751417    0.855191    3.038937
| 22> C       3.262299    0.487638    1.257274
| 23> N       4.405731    0.791012    1.903023
| 24> N       5.376155    0.700067    1.074536
| 25> C       4.868333    0.318428   -0.215692
| 26> C       5.129970    1.429045   -1.236730
| 27> C       5.454646   -1.025952   -0.649997
| 28> O       3.460126    0.189729    0.000229
| 29> N      -0.514586   -0.764011   -0.912091
| 30> C      -1.141005   -1.222557   -2.050201
| 31> O      -0.517107   -1.678723   -3.001374
| 32> C      -2.619699   -1.124805   -2.037880
| 33> O      -3.264337   -1.544348   -3.115366
| 34> H      -6.949797    0.906335   -0.518676
| 35> H      -7.120277   -0.685231    0.265234
| 36> H      -6.807112    0.769857    1.261470
| 37> H      -1.846761   -0.891969    2.618908
| 38> H      -0.302019   -0.489258    3.396237
| 39> H      -0.385389   -1.813788    2.216435
| 40> H      -2.022920    1.573364    1.832400
| 41> H      -0.674366    2.275927    0.920394
| 42> H      -0.475055    1.890646    2.642279
| 43> H       1.178517   -0.123189    0.069107
| 44> H       4.697045    1.146177   -2.193062
| 45> H       6.202705    1.567105   -1.343968
| 46> H       4.674209    2.353581   -0.888696
| 47> H       5.232526   -1.778632    0.103270
| 48> H       6.531267   -0.924509   -0.759152
| 49> H       5.014511   -1.318800   -1.600086
| 50> H      -4.239182   -1.436549   -3.007463
| 51> **                         ****END OF INPUT****

CARTESIAN COORDINATES (ANGSTROEM)
---------------------------------
  C     -6.611649    0.280186    0.309856
  O     -5.194837    0.090642    0.230993
  C     -4.731950   -0.464551   -0.878215
  O     -5.450029   -0.818498   -1.797853
  C     -3.255208   -0.606210   -0.912372
  N     -2.551741   -0.204386    0.157768
  C     -1.219451   -0.303455    0.092709
  C     -0.481859    0.161123    1.333784
  C     -0.769493   -0.827986    2.473519
  C     -0.940867    1.575841    1.710471
  N      0.942551    0.165647    1.014405
  C      1.904689    0.519865    1.874678
  O      1.751417    0.855191    3.038937
  C      3.262299    0.487638    1.257274
  N      4.405731    0.791012    1.903023
  N      5.376155    0.700067    1.074536
  C      4.868333    0.318428   -0.215692
  C      5.129970    1.429045   -1.236730
  C      5.454646   -1.025952   -0.649997
  O      3.460126    0.189729    0.000229
  N     -0.514586   -0.764011   -0.912091
  C     -1.141005   -1.222557   -2.050201
  O     -0.517107   -1.678723   -3.001374
  C     -2.619699   -1.124805   -2.037880
  O     -3.264337   -1.544348   -3.115366
  H     -6.949797    0.906335   -0.518676
  H     -7.120277   -0.685231    0.265234
  H     -6.807112    0.769857    1.261470
  H     -1.846761   -0.891969    2.618908
  H     -0.302019   -0.489258    3.396237
  H     -0.385389   -1.813788    2.216435
  H     -2.022920    1.573364    1.832400
  H     -0.674366    2.275927    0.920394
  H     -0.475055    1.890646    2.642279
  H      1.178517   -0.123189    0.069107
  H      4.697045    1.146177   -2.193062
  H      6.202705    1.567105   -1.343968
  H      4.674209    2.353581   -0.888696
  H      5.232526   -1.778632    0.103270
  H      6.531267   -0.924509   -0.759152
  H      5.014511   -1.318800   -1.600086
  H     -4.239182   -1.436549   -3.007463

 Total Charge           Charge          ....    0
 Multiplicity           Mult            ....    1
 Number of Electrons    NEL             ....  184
 Basis Dimension        Dim             ....  615

ORBITAL ENERGIES
----------------

  NO   OCC          E(Eh)            E(eV)
   0   2.0000     -19.078978      -519.1654
   1   2.0000     -19.011972      -517.3421
   2   2.0000     -19.004961      -517.1513
   3   2.0000     -18.959623      -515.9176
   4   2.0000     -18.939925      -515.3816
   5   2.0000     -18.922330      -514.9028
   6   2.0000     -14.251998      -387.8166
   7   2.0000     -14.248622      -387.7247
   8   2.0000     -14.208026      -386.6200
   9   2.0000     -14.162612      -385.3843
  10   2.0000     -14.154873      -385.1737
  11   2.0000     -10.193584      -277.3815
  12   2.0000     -10.175955      -276.9018
  13   2.0000     -10.165833      -276.6264
  14   2.0000     -10.165650      -276.6214
  15   2.0000     -10.128928      -275.6222
  16   2.0000     -10.124371      -275.4981
  17   2.0000     -10.106937      -275.0237
  18   2.0000     -10.098058      -274.7821
  19   2.0000     -10.093325      -274.6533
  20   2.0000     -10.080739      -274.3108
  21   2.0000     -10.048085      -273.4223
  22   2.0000     -10.047698      -273.4118
  23   2.0000     -10.022143      -272.7164
  24   2.0000     -10.019788      -272.6523
  25   2.0000      -1.168565       -31.7983
  26   2.0000      -1.091724       -29.7073
  27   2.0000      -1.057291       -28.7703
  28   2.0000      -1.030030       -28.0285
  29   2.0000      -1.024804       -27.8863
  30   2.0000      -1.001995       -27.2657
  31   2.0000      -0.996984       -27.1293
  32   2.0000      -0.949406       -25.8347
  33   2.0000      -0.916622       -24.9426
  34   2.0000      -0.850945       -23.1554
  35   2.0000      -0.846298       -23.0289
  36   2.0000      -0.782916       -21.3042
  37   2.0000      -0.739088       -20.1116
  38   2.0000      -0.728178       -19.8147
  39   2.0000      -0.707390       -19.2491
  40   2.0000      -0.689539       -18.7633
  41   2.0000      -0.672521       -18.3002
  42   2.0000      -0.659877       -17.9562
  43   2.0000      -0.641554       -17.4576
  44   2.0000      -0.635040       -17.2803
  45   2.0000      -0.621812       -16.9204
  46   2.0000      -0.596132       -16.2216
  47   2.0000      -0.559420       -15.2226
  48   2.0000      -0.550477       -14.9792
  49   2.0000      -0.544583       -14.8189
  50   2.0000      -0.527064       -14.3421
  51   2.0000      -0.511909       -13.9298
  52   2.0000      -0.509014       -13.8510
  53   2.0000      -0.486557       -13.2399
  54   2.0000      -0.468573       -12.7505
  55   2.0000      -0.464334       -12.6352
  56   2.0000      -0.459592       -12.5061
  57   2.0000      -0.448248       -12.1975
  58   2.0000      -0.439289       -11.9537
  59   2.0000      -0.434737       -11.8298
  60   2.0000      -0.426236       -11.5985
  61   2.0000      -0.424456       -11.5500
  62   2.0000      -0.408319       -11.1109
  63   2.0000      -0.401173       -10.9165
  64   2.0000      -0.399959       -10.8834
  65   2.0000      -0.398542       -10.8449
  66   2.0000      -0.389972       -10.6117
  67   2.0000      -0.388298       -10.5661
  68   2.0000      -0.382057       -10.3963
  69   2.0000      -0.381150       -10.3716
  70   2.0000      -0.378090       -10.2884
  71   2.0000      -0.368529       -10.0282
  72   2.0000      -0.362321        -9.8593
  73   2.0000      -0.359693        -9.7878
  74   2.0000      -0.357790        -9.7360
  75   2.0000      -0.352243        -9.5850
  76   2.0000      -0.346816        -9.4374
  77   2.0000      -0.343812        -9.3556
  78   2.0000      -0.336790        -9.1645
  79   2.0000      -0.332448        -9.0464
  80   2.0000      -0.329760        -8.9732
  81   2.0000      -0.321080        -8.7370
  82   2.0000      -0.288620        -7.8537
  83   2.0000      -0.287695        -7.8286
  84   2.0000      -0.278793        -7.5863
  85   2.0000      -0.275700        -7.5022
  86   2.0000      -0.265669        -7.2292
  87   2.0000      -0.252502        -6.8709
  88   2.0000      -0.251070        -6.8320
  89   2.0000      -0.231997        -6.3129
  90   2.0000      -0.219447        -5.9715
  91   2.0000      -0.195233        -5.3126
  92   0.0000      -0.193302        -5.2600
  93   0.0000      -0.088149        -2.3986
  94   0.0000      -0.084490        -2.2991
  95   0.0000      -0.030900        -0.8408
  96   0.0000       0.020526         0.5586

MULLIKEN ATOMIC CHARGES
-----------------------
   0 C :   -0.312564
   1 O :   -0.181648
   2 C :    0.214700
   3 O :   -0.479495
   4 C :    0.141450
   5 N :   -0.224588
   6 C :    0.549964
   7 C :   -0.186808
   8 C :   -0.632298
   9 C :   -0.628805
  10 N :    0.045844
  11 C :   -0.115130
  12 O :   -0.436285
  13 C :    0.504610
  14 N :   -0.048315
  15 N :   -0.093077
  16 C :    0.074412
  17 C :   -0.440848
  18 C :   -0.446934
  19 O :   -0.031475
  20 N :   -0.243092
  21 C :   -0.016984
  22 O :   -0.366899
  23 C :    0.111761
  24 O :   -0.335007
  25 H :    0.180155
  26 H :    0.180601
  27 H :    0.180706
  28 H :    0.193736
  29 H :    0.197366
  30 H :    0.187815
  31 H :    0.192921
  32 H :    0.184911
  33 H :    0.197268
  34 H :    0.311576
  35 H :    0.203296
  36 H :    0.205699
  37 H :    0.189039
  38 H :    0.189388
  39 H :    0.204997
  40 H :    0.202926
  41 H :    0.375108
Sum of atomic charges:    0.0000000

LOEWDIN ATOMIC CHARGES
----------------------
   0 C :   -0.031557
   1 O :   -0.555198
   2 C :    0.409555
   3 O :   -0.461019
   4 C :    0.199267
   5 N :   -0.568646
   6 C :    0.329785
   7 C :    0.109957
   8 C :   -0.337085
   9 C :   -0.339268
  10 N :   -0.558000
  11 C :    0.371149
  12 O :   -0.450106
  13 C :    0.506125
  14 N :   -0.249714
  15 N :   -0.254881
  16 C :    0.265411
  17 C :   -0.290661
  18 C :   -0.292514
  19 O :   -0.403187
  20 N :   -0.541817
  21 C :    0.334088
  22 O :   -0.438151
  23 C :    0.295121
  24 O :   -0.418246
  25 H :    0.185018
  26 H :    0.184555
  27 H :    0.188598
  28 H :    0.176137
  29 H :    0.178043
  30 H :    0.174111
  31 H :    0.179347
  32 H :    0.173746
  33 H :    0.176546
  34 H :    0.311732
  35 H :    0.186871
  36 H :    0.191397
  37 H :    0.184437
  38 H :    0.184294
  39 H :    0.191350
  40 H :    0.186883
  41 H :    0.316529

  Mayer bond orders larger than 0.100000
B(  0-C ,  1-O ) :   0.8250 B(  0-C , 25-H ) :   0.9547 B(  0-C , 26-H ) :   0.9539
B(  0-C , 27-H ) :   0.9606 B(  1-O ,  2-C ) :   1.1997 B(  2-C ,  3-O ) :   1.7167
B(  2-C ,  4-C ) :   1.0639 B(  4-C ,  5-N ) :   1.2096 B(  4-C , 23-C ) :   1.1880
B(  5-N ,  6-C ) :   1.2156 B(  6-C ,  7-C ) :   0.7739 B(  6-C , 10-N ) :  -0.1243
B(  6-C , 20-N ) :   1.3498 B(  7-C ,  8-C ) :   0.9018 B(  7-C ,  9-C ) :   0.9083
B(  7-C , 10-N ) :   0.9384 B(  7-C , 20-N ) :   0.1403 B(  8-C , 28-H ) :   0.9621
B(  8-C , 29-H ) :   0.9574 B(  8-C , 30-H ) :   0.9658 B(  9-C , 31-H ) :   0.9566
B(  9-C , 32-H ) :   0.9668 B(  9-C , 33-H ) :   0.9631 B( 10-N , 11-C ) :   1.1912
B( 10-N , 34-H ) :   0.8317 B( 11-C , 12-O ) :   1.8545 B( 11-C , 13-C ) :   0.9309
B( 13-C , 14-N ) :   1.2292 B( 13-C , 19-O ) :   1.2432 B( 14-N , 15-N ) :   1.6358
B( 15-N , 16-C ) :   0.8129 B( 16-C , 17-C ) :   0.9654 B( 16-C , 18-C ) :   0.9649
B( 16-C , 19-O ) :   0.7334 B( 17-C , 35-H ) :   0.9512 B( 17-C , 36-H ) :   0.9431
B( 17-C , 37-H ) :   0.9258 B( 18-C , 38-H ) :   0.9289 B( 18-C , 39-H ) :   0.9418
B( 18-C , 40-H ) :   0.9510 B( 20-N , 21-C ) :   1.1504 B( 21-C , 22-O ) :   2.0274
B( 21-C , 23-C ) :   0.9382 B( 23-C , 24-O ) :   1.1802 B( 24-O , 41-H ) :   0.7667

Dispersion correction           -0.018260911
FINAL SINGLE POINT ENERGY     -1268.576629432948

DIPOLE MOMENT
-------------
                                X             Y             Z
Electronic contribution:     -2.76903      -3.72573      -5.00550
Nuclear contribution   :      4.79033       4.78228       5.15839
                        -----------------------------------------
Total Dipole Moment    :      2.02129       1.05655       0.15289
                        -----------------------------------------
Magnitude (a.u.)       :      2.28589
Magnitude (Debye)      :      5.81027

Rotational constants in cm-1:     0.015244     0.003415     0.002917
Rotational constants in MHz :   457.016953   102.375678    87.451901

                             ****ORCA TERMINATED NORMALLY****
TOTAL RUN TIME: 0 days 0 hours 3 minutes 35 seconds 229 msec
