   * xtb version 6.5.1 (579679a) compiled by 'ehlert@majestix' on 2022-07-11
          program call               : /lustre/hpc/kemi/ree/PhD/git/ReactivityQM/dep/xtb-6.5.1/bin/xtb --gfn 1 /lustre/hpc/kemi/ree/PhD/git/ReactivityQM/calculations/R02deprot/reac01prodN14/conf17/R02deprot_reac01prodN14_conf17_gfn1.xyz --opt --vfukui --chrg 0 --uhf 0 --alpb DMSO

   ID    Z sym.   atoms
    1    6 C      1, 3, 5, 7-10, 12, 14, 17-19, 22, 24
    2    8 O      2, 4, 13, 20, 23, 25
    3    7 N      6, 11, 15, 16, 21
    4    1 H      26-42

      * Solvation model:               ALPB
        Solvent                        DMSO
        Solvent mass                       7.8130E+01 g/mol
          :  Hamiltonian                  GFN1-xTB          :
 * total energy  :   -82.9142319 Eh     change       -0.6463097E-10 Eh
 * total energy  :   -82.9245740 Eh     change       -0.1034206E-01 Eh
 * total energy  :   -82.9281064 Eh     change       -0.3532461E-02 Eh
 * total energy  :   -82.9286017 Eh     change       -0.4952724E-03 Eh
 * total energy  :   -82.9289865 Eh     change       -0.3847716E-03 Eh
 * total energy  :   -82.9291842 Eh     change       -0.1977460E-03 Eh
 * total energy  :   -82.9293902 Eh     change       -0.2060158E-03 Eh
 * total energy  :   -82.9295779 Eh     change       -0.1877196E-03 Eh
 * total energy  :   -82.9297015 Eh     change       -0.1235856E-03 Eh
 * total energy  :   -82.9297858 Eh     change       -0.8426295E-04 Eh
 * total energy  :   -82.9332739 Eh     change       -0.9465257E-05 Eh
 * total energy  :   -82.9332814 Eh     change       -0.7538999E-05 Eh
 * total energy  :   -82.9332881 Eh     change       -0.6714325E-05 Eh
 * total energy  :   -82.9332947 Eh     change       -0.6622004E-05 Eh
 * total energy  :   -82.9333015 Eh     change       -0.6764379E-05 Eh
 * total energy  :   -82.9333085 Eh     change       -0.6966693E-05 Eh
 * total energy  :   -82.9333150 Eh     change       -0.6579575E-05 Eh
 * total energy  :   -82.9333208 Eh     change       -0.5754189E-05 Eh
 * total energy  :   -82.9333255 Eh     change       -0.4710625E-05 Eh
   *** GEOMETRY OPTIMIZATION CONVERGED AFTER 176 ITERATIONS ***

 final structure:
================
42
 xtb: 6.5.1 (579679a)
C           -6.61164855045811        0.28018633949550        0.30985553334515
O           -5.19483747308385        0.09064237173810        0.23099298920222
C           -4.73195021135793       -0.46455147568667       -0.87821504330947
O           -5.45002891714398       -0.81849790307163       -1.79785303698332
C           -3.25520835812247       -0.60620964857427       -0.91237211386964
N           -2.55174062777806       -0.20438598294456        0.15776783736412
C           -1.21945123170701       -0.30345496400229        0.09270851408303
C           -0.48185875584764        0.16112345133577        1.33378405710160
C           -0.76949271319113       -0.82798595616602        2.47351945866050
C           -0.94086690203061        1.57584129231088        1.71047133453292
N            0.94255135456544        0.16564662493178        1.01440487369111
C            1.90468924879772        0.51986470983506        1.87467787669806
O            1.75141662784734        0.85519074161743        3.03893687217516
C            3.26229941530628        0.48763836882759        1.25727392187335
N            4.40573057477496        0.79101174801399        1.90302331155442
N            5.37615543853770        0.70006684491666        1.07453583264137
C            4.86833272944877        0.31842811059825       -0.21569235565611
C            5.12997019679568        1.42904523300025       -1.23673021690619
C            5.45464612820556       -1.02595218154221       -0.64999687988955
O            3.46012587210924        0.18972913053203        0.00022881459756
N           -0.51458565801025       -0.76401106348574       -0.91209064236859
C           -1.14100494947983       -1.22255734478673       -2.05020128847105
O           -0.51710745300432       -1.67872260750582       -3.00137436886826
C           -2.61969944343168       -1.12480523581918       -2.03788027233335
O           -3.26433720505311       -1.54434752018603       -3.11536590421537
H           -6.94979686213906        0.90633454332486       -0.51867562927342
H           -7.12027659496992       -0.68523070933893        0.26523405005917
H           -6.80711187294502        0.76985662647919        1.26147016558190
H           -1.84676069775658       -0.89196949164067        2.61890836082708
H           -0.30201883995692       -0.48925766978473        3.39623652247575
H           -0.38538934241993       -1.81378792291765        2.21643543555557
H           -2.02292010311005        1.57336433301695        1.83239986419835
H           -0.67436630141792        2.27592708894966        0.92039429157717
H           -0.47505474807019        1.89064596716084        2.64227946467735
H            1.17851748648983       -0.12318918715289        0.06910660861894
H            4.69704451522723        1.14617711106005       -2.19306216518924
H            6.20270483023513        1.56710512342913       -1.34396846163889
H            4.67420921900147        2.35358068759736       -0.88869614312157
H            5.23252574784743       -1.77863188956717        0.10326966278311
H            6.53126692054164       -0.92450947021332       -0.75915222629154
H            5.01451134609205       -1.31880044609951       -1.60008550047381
H           -4.23918183930830       -1.43654877767390       -3.00746340502446

          :  Hamiltonian                  GFN1-xTB          :
         :: total energy             -82.933325509095 Eh    ::
         :: gradient norm              0.000165135009 Eh/a0 ::
         :: HOMO-LUMO gap              0.056963071100 eV    ::
         :: SCC energy               -83.689864066706 Eh    ::
         :: -> Gsolv                  -0.054230917788 Eh    ::
         :: repulsion energy           0.781855216407 Eh    ::

    * Orbital Energies and Occupations

         #    Occupation            Energy/Eh            Energy/eV
      -------------------------------------------------------------
         1        2.0000           -0.8861932             -24.1145
       ...           ...                  ...                  ...
        55        2.0000           -0.5112412             -13.9116
        56        2.0000           -0.5027531             -13.6806
        57        2.0000           -0.5011027             -13.6357
        58        2.0000           -0.4980508             -13.5527
        59        2.0000           -0.4866522             -13.2425
        60        2.0000           -0.4791179             -13.0375
        61        2.0000           -0.4767327             -12.9726
        62        2.0000           -0.4668692             -12.7042
        63        2.0000           -0.4665900             -12.6966
        64        2.0000           -0.4564250             -12.4200
        65        2.0000           -0.4465496             -12.1512
        66        1.9981           -0.4147002             -11.2846
        67        1.5021           -0.4091492             -11.1335 (HOMO)
        68        0.4998           -0.4070558             -11.0766 (LUMO)
        69                         -0.3216479              -8.7525
        70                         -0.3128447              -8.5129
        71                         -0.2711213              -7.3776
        72                         -0.2273540              -6.1866
        73                         -0.2204326              -5.9983
        74                         -0.1493237              -4.0633
        75                         -0.1456150              -3.9624
        76                         -0.1401847              -3.8146
        77                         -0.1365931              -3.7169
        78                         -0.1215259              -3.3069
       ...                                ...                  ...
       134                          0.7131085              19.4047
      -------------------------------------------------------------
                  HL-Gap            0.0020934 Eh            0.0570 eV

Wiberg/Mayer (AO) data.
largest (>0.10) Wiberg bond orders for each atom

     #   Z sym  total        # sym  WBO       # sym  WBO       # sym  WBO
 ---------------------------------------------------------------------------
     1   6 C    3.866 --    28 H    0.986    26 H    0.979    27 H    0.979
                             2 O    0.892
     2   8 O    2.218 --     3 C    1.139     1 C    0.892     4 O    0.131
     3   6 C    3.841 --     4 O    1.608     2 O    1.139     5 C    1.010
     4   8 O    1.938 --     3 C    1.608     2 O    0.131
     5   6 C    3.917 --    24 C    1.355     6 N    1.320     3 C    1.010
     6   7 N    2.843 --     5 C    1.320     7 C    1.319
     7   6 C    3.914 --    21 N    1.475     6 N    1.319     8 C    0.981
     8   6 C    3.924 --     7 C    0.981    10 C    0.977     9 C    0.970
                            11 N    0.925
     9   6 C    3.982 --    31 H    0.986    29 H    0.984    30 H    0.981
                             8 C    0.970
    10   6 C    3.983 --    33 H    0.986    32 H    0.982    34 H    0.982
                             8 C    0.977
    11   7 N    3.378 --    12 C    1.291     8 C    0.925    35 H    0.868
                            13 O    0.200
    12   6 C    3.921 --    13 O    1.565    11 N    1.291    14 C    0.982
    13   8 O    1.883 --    12 C    1.565    11 N    0.200
    14   6 C    3.633 --    15 N    1.296    20 O    1.198    12 C    0.982
    15   7 N    2.992 --    16 N    1.560    14 C    1.296
    16   7 N    2.711 --    15 N    1.560    17 C    1.025
    17   6 C    3.834 --    16 N    1.025    19 C    0.939    18 C    0.935
                            20 O    0.870
    18   6 C    3.939 --    38 H    0.982    37 H    0.981    36 H    0.980
                            17 C    0.935
    19   6 C    3.941 --    39 H    0.982    40 H    0.981    41 H    0.980
                            17 C    0.939
    20   8 O    2.223 --    14 C    1.198    17 C    0.870
    21   7 N    2.955 --     7 C    1.475    22 C    1.152
    22   6 C    3.874 --    23 O    1.590    21 N    1.152    24 C    1.026
    23   8 O    1.774 --    22 C    1.590
    24   6 C    3.730 --     5 C    1.355    25 O    1.165    22 C    1.026
    25   8 O    2.064 --    24 C    1.165    42 H    0.770
    26   1 H    1.006 --     1 C    0.979
    27   1 H    1.006 --     1 C    0.979
    28   1 H    1.010 --     1 C    0.986
    29   1 H    1.006 --     9 C    0.984
    30   1 H    1.008 --     9 C    0.981
    31   1 H    1.002 --     9 C    0.986
    32   1 H    1.011 --    10 C    0.982
    33   1 H    1.001 --    10 C    0.986
    34   1 H    1.007 --    10 C    0.982
    35   1 H    0.956 --    11 N    0.868
    36   1 H    0.995 --    18 C    0.980
    37   1 H    0.997 --    18 C    0.981
    38   1 H    0.996 --    18 C    0.982
    39   1 H    0.996 --    19 C    0.982
    40   1 H    0.997 --    19 C    0.981
    41   1 H    0.996 --    19 C    0.980
    42   1 H    0.849 --    25 O    0.770
 ---------------------------------------------------------------------------

           -------------------------------------------------
          | TOTAL ENERGY              -82.933325509095 Eh   |
          | GRADIENT NORM               0.000165135009 Eh/α |
          | HOMO-LUMO GAP               0.056963071100 eV   |
           -------------------------------------------------

 * finished run on 2023/06/20 at 18:24:25.582
