   * xtb version 6.5.1 (579679a) compiled by 'ehlert@majestix' on 2022-07-11
          program call               : /lustre/hpc/kemi/ree/PhD/git/ReactivityQM/dep/xtb-6.5.1/bin/xtb --gfn 1 /lustre/hpc/kemi/ree/PhD/git/ReactivityQM/calculations/RaltegravirCLI/reac02prodE07/conf18/RaltegravirCLI_reac02prodE07_conf18_gfn1.xyz --opt --vfukui --chrg -1 --uhf 0 --alpb DMSO

   ID    Z sym.   atoms
    1    6 C      1-4, 6-9, 11, 13, 15-18, 21, 22, 24
    2    9 F      5
    3    7 N      10, 14, 19, 20
    4    8 O      12, 23, 25
    5    1 H      26-47

      * Solvation model:               ALPB
        Solvent                        DMSO
        Solvent mass                       7.8130E+01 g/mol
          :  Hamiltonian                  GFN1-xTB          :
 * total energy  :   -80.1791747 Eh     change       -0.9451639E-10 Eh
 * total energy  :   -80.1881812 Eh     change       -0.9006515E-02 Eh
 * total energy  :   -80.1904340 Eh     change       -0.2252847E-02 Eh
 * total energy  :   -80.1908059 Eh     change       -0.3718095E-03 Eh
 * total energy  :   -80.1911253 Eh     change       -0.3194226E-03 Eh
 * total energy  :   -80.1913062 Eh     change       -0.1809426E-03 Eh
 * total energy  :   -80.1915160 Eh     change       -0.2097949E-03 Eh
 * total energy  :   -80.1916989 Eh     change       -0.1828966E-03 Eh
 * total energy  :   -80.1918261 Eh     change       -0.1271794E-03 Eh
 * total energy  :   -80.1918896 Eh     change       -0.6346910E-04 Eh
 * total energy  :   -80.1943446 Eh     change       -0.2746479E-04 Eh
 * total energy  :   -80.1943794 Eh     change       -0.3476926E-04 Eh
 * total energy  :   -80.1944135 Eh     change       -0.3409156E-04 Eh
 * total energy  :   -80.1944368 Eh     change       -0.2327784E-04 Eh
 * total energy  :   -80.1944571 Eh     change       -0.2035617E-04 Eh
 * total energy  :   -80.1944761 Eh     change       -0.1897989E-04 Eh
 * total energy  :   -80.1944904 Eh     change       -0.1434493E-04 Eh
 * total energy  :   -80.1944977 Eh     change       -0.7215169E-05 Eh
 * total energy  :   -80.1945018 Eh     change       -0.4147185E-05 Eh
   *** GEOMETRY OPTIMIZATION CONVERGED AFTER 109 ITERATIONS ***

 final structure:
================
47
 xtb: 6.5.1 (579679a)
C            3.34326557417320        2.06296241050302        0.77058649283591
C            3.23484469777701        0.57029688818864        0.35220056567340
C            4.02566267617884       -0.29584078950875        1.30510413695008
C            5.13046527082131       -0.95364044920906        0.88720016078015
F            5.83972101203415       -1.66299198411355        1.81827505903070
C            5.59382531751902       -1.01227801078795       -0.43547591149374
C            4.79301454943562       -0.37636489967281       -1.40084887312740
C            3.68760254160767        0.36385476173881       -1.08308335337998
C            2.79988860885067        0.92161719800521       -2.16144397721085
N            1.49219402627543        0.24206852630604       -2.09691227578054
C            0.51599451323890        0.77164420852352       -1.30835643495818
O            0.46227705338413        1.98150524197473       -1.05221289531465
C           -0.55338852087695       -0.15568728585967       -0.85602956078457
N           -1.62666803352332        0.47890197723201       -0.27859122466407
C           -2.65485576878414       -0.16208961085898        0.16750910473317
C           -3.74729116015032        0.69067249271662        0.80586723065928
C           -3.54922350530735        0.69450624859921        2.32921433377225
C           -3.63178436443321        2.13166510023519        0.27953153114932
N           -5.07296750207652        0.16104257814626        0.49305319211297
N           -2.73431651138412       -1.53603509702465        0.12169982597208
C           -3.87495860891128       -2.30212708658894        0.61708190872344
C           -1.71046876688214       -2.28026170998461       -0.46123104221037
O           -1.76363797831115       -3.51657028357362       -0.54377310071219
C           -0.59004474181752       -1.53056108656578       -0.94925038678594
O            0.40551521296470       -2.28566723745664       -1.49439546067786
H            4.36472088472533        2.41889560468382        0.63250303494042
H            2.67006014170721        2.67846292373098        0.17300768515110
H            3.07466681678934        2.17431138109478        1.82197932150194
H            2.15622042948255        0.31316004991653        0.43353075168429
H            3.70592526493342       -0.33740827137652        2.33943708210025
H            6.48684305639064       -1.56144282438084       -0.69602590922311
H            5.07505472481341       -0.47704893968131       -2.44741900755807
H            3.22843672385385        0.74391454431354       -3.15383166417216
H            2.61485773106179        1.99694915900678       -2.05517236871668
H            1.55220623783165       -0.76392450333628       -2.15916094023333
H           -3.67473902089338       -0.30366948534235        2.74518579587164
H           -2.54885648207419        1.05270091694227        2.57240471215969
H           -4.28066703438788        1.35535465888283        2.79195828330452
H           -3.72617809524133        2.14253573649911       -0.80572327179770
H           -2.66783477371267        2.56134771717150        0.55193639361214
H           -4.42723087488053        2.73790088342728        0.70891124882629
H           -5.75903148419095        0.61084789644575        1.08146115714308
H           -5.31038593522231        0.37671067904461       -0.46660981374294
H           -3.55962861663605       -3.33810566015285        0.74558506351493
H           -4.21642952892740       -1.90580080347821        1.56852579687248
H           -4.69370357815916       -2.25923710389954       -0.10083330768399
H            0.12102682093921       -3.21707966049624       -1.44987608885177

          :  Hamiltonian                  GFN1-xTB          :
         :: total energy             -80.194501801274 Eh    ::
         :: gradient norm              0.000337026676 Eh/a0 ::
         :: HOMO-LUMO gap              0.287891570815 eV    ::
         :: SCC energy               -81.049163239169 Eh    ::
         :: -> Gsolv                  -0.104335403670 Eh    ::
         :: repulsion energy           0.885777609558 Eh    ::

    * Orbital Energies and Occupations

         #    Occupation            Energy/Eh            Energy/eV
      -------------------------------------------------------------
         1        2.0000           -0.8084762             -21.9998
       ...           ...                  ...                  ...
        56        2.0000           -0.4532706             -12.3341
        57        2.0000           -0.4436947             -12.0735
        58        2.0000           -0.4410203             -12.0008
        59        2.0000           -0.4388019             -11.9404
        60        2.0000           -0.4257184             -11.5844
        61        2.0000           -0.4231915             -11.5156
        62        2.0000           -0.4201536             -11.4330
        63        2.0000           -0.4126065             -11.2276
        64        2.0000           -0.4049082             -11.0181
        65        2.0000           -0.4020609             -10.9406
        66        2.0000           -0.3960620             -10.7774
        67        2.0000           -0.3837119             -10.4413
        68        1.9924           -0.3005953              -8.1796 (HOMO)
        69        0.0076           -0.2900155              -7.8917 (LUMO)
        70                         -0.2518332              -6.8527
        71                         -0.2064646              -5.6182
        72                         -0.1976620              -5.3787
        73                         -0.1277354              -3.4759
        74                         -0.1250611              -3.4031
        75                         -0.1224694              -3.3326
        76                         -0.1163749              -3.1667
        77                         -0.1103958              -3.0040
        78                         -0.0931903              -2.5358
        79                         -0.0909330              -2.4744
       ...                                ...                  ...
       144                          0.7060657              19.2130
      -------------------------------------------------------------
                  HL-Gap            0.0105798 Eh            0.2879 eV

Wiberg/Mayer (AO) data.
largest (>0.10) Wiberg bond orders for each atom

     #   Z sym  total        # sym  WBO       # sym  WBO       # sym  WBO
 ---------------------------------------------------------------------------
     1   6 C    3.983 --    26 H    0.990    28 H    0.987    27 H    0.984
                             2 C    0.969
     2   6 C    3.993 --     3 C    1.011     8 C    1.004     1 C    0.969
                            29 H    0.950
     3   6 C    3.903 --     4 C    1.606     2 C    1.011    30 H    0.974
     4   6 C    3.836 --     3 C    1.606     6 C    1.276     5 F    0.871
     5   9 F    0.983 --     4 C    0.871
     6   6 C    3.776 --     7 C    1.324     4 C    1.276    31 H    0.976
     7   6 C    3.994 --     8 C    1.583     6 C    1.324    32 H    0.970
     8   6 C    3.902 --     7 C    1.583     9 C    1.008     2 C    1.004
     9   6 C    3.945 --     8 C    1.008    33 H    0.979    34 H    0.970
                            10 N    0.918
    10   7 N    3.301 --    11 C    1.216     9 C    0.918    35 H    0.904
                            12 O    0.146
    11   6 C    3.894 --    12 O    1.515    10 N    1.216    13 C    1.031
    12   8 O    1.821 --    11 C    1.515    10 N    0.146
    13   6 C    3.928 --    24 C    1.430    14 N    1.177    11 C    1.031
    14   7 N    3.024 --    15 C    1.586    13 C    1.177
    15   6 C    3.911 --    14 N    1.586    20 N    1.153    16 C    0.975
    16   6 C    3.966 --    18 C    0.990    17 C    0.984    19 N    0.982
                            15 C    0.975
    17   6 C    3.994 --    37 H    0.986    16 C    0.984    38 H    0.984
                            36 H    0.980
    18   6 C    3.995 --    16 C    0.990    41 H    0.987    39 H    0.985
                            40 H    0.982
    19   7 N    2.977 --    16 C    0.982    43 H    0.943    42 H    0.942
    20   7 N    3.440 --    15 C    1.153    22 C    1.097    21 C    0.937
                            23 O    0.116
    21   6 C    3.934 --    45 H    0.979    46 H    0.978    44 H    0.976
                            20 N    0.937
    22   6 C    3.877 --    23 O    1.489    24 C    1.151    20 N    1.097
    23   8 O    1.823 --    22 C    1.489    20 N    0.116
    24   6 C    3.876 --    13 C    1.430    22 C    1.151    25 O    1.040
    25   8 O    2.032 --    24 C    1.040    47 H    0.814
    26   1 H    1.016 --     1 C    0.990
    27   1 H    1.017 --     1 C    0.984
    28   1 H    1.011 --     1 C    0.987
    29   1 H    1.016 --     2 C    0.950
    30   1 H    1.003 --     3 C    0.974
    31   1 H    1.004 --     6 C    0.976
    32   1 H    1.006 --     7 C    0.970
    33   1 H    1.013 --     9 C    0.979
    34   1 H    1.023 --     9 C    0.970
    35   1 H    0.965 --    10 N    0.904
    36   1 H    1.006 --    17 C    0.980
    37   1 H    1.005 --    17 C    0.986
    38   1 H    1.001 --    17 C    0.984
    39   1 H    1.009 --    18 C    0.985
    40   1 H    1.018 --    18 C    0.982
    41   1 H    1.005 --    18 C    0.987
    42   1 H    0.957 --    19 N    0.942
    43   1 H    0.960 --    19 N    0.943
    44   1 H    1.013 --    21 C    0.976
    45   1 H    1.023 --    21 C    0.979
    46   1 H    1.019 --    21 C    0.978
    47   1 H    0.862 --    25 O    0.814
 ---------------------------------------------------------------------------

           -------------------------------------------------
          | TOTAL ENERGY              -80.194501801274 Eh   |
          | GRADIENT NORM               0.000337026676 Eh/α |
          | HOMO-LUMO GAP               0.287891570815 eV   |
           -------------------------------------------------

 * finished run on 2023/06/20 at 15:06:01.988
