   * xtb version 6.5.1 (579679a) compiled by 'ehlert@majestix' on 2022-07-11
          program call               : /lustre/hpc/kemi/ree/PhD/git/ReactivityQM/dep/xtb-6.5.1/bin/xtb --gfn 1 /lustre/hpc/kemi/ree/PhD/git/ReactivityQM/calculations/R02methylcation/reac01prodN08/conf03/R02methylcation_reac01prodN08_conf03_gfn1.xyz --opt --vfukui --chrg 0 --uhf 0 --alpb DMSO

   ID    Z sym.   atoms
    1    6 C      1, 3, 5, 7-10, 12, 14, 17, 18, 21, 23, 25
    2    8 O      2, 4, 13, 19, 22, 24
    3    7 N      6, 11, 15, 16, 20
    4    1 H      26-42

      * Solvation model:               ALPB
        Solvent                        DMSO
        Solvent mass                       7.8130E+01 g/mol
          :  Hamiltonian                  GFN1-xTB          :
 * total energy  :   -82.9996899 Eh     change       -0.1111289E-10 Eh
 * total energy  :   -83.0128983 Eh     change       -0.1320844E-01 Eh
 * total energy  :   -83.0170251 Eh     change       -0.4126786E-02 Eh
 * total energy  :   -83.0180405 Eh     change       -0.1015420E-02 Eh
 * total energy  :   -83.0187849 Eh     change       -0.7443642E-03 Eh
 * total energy  :   -83.0192148 Eh     change       -0.4299012E-03 Eh
 * total energy  :   -83.0195456 Eh     change       -0.3308220E-03 Eh
 * total energy  :   -83.0197803 Eh     change       -0.2347518E-03 Eh
 * total energy  :   -83.0199029 Eh     change       -0.1225902E-03 Eh
 * total energy  :   -83.0199652 Eh     change       -0.6222870E-04 Eh
 * total energy  :   -83.0205179 Eh     change       -0.2239127E-04 Eh
 * total energy  :   -83.0205314 Eh     change       -0.1346603E-04 Eh
 * total energy  :   -83.0205517 Eh     change       -0.2031667E-04 Eh
 * total energy  :   -83.0205647 Eh     change       -0.1301976E-04 Eh
 * total energy  :   -83.0205835 Eh     change       -0.1875229E-04 Eh
 * total energy  :   -83.0205913 Eh     change       -0.7877215E-05 Eh
 * total energy  :   -83.0206022 Eh     change       -0.1082917E-04 Eh
 * total energy  :   -83.0206092 Eh     change       -0.7085942E-05 Eh
 * total energy  :   -83.0206126 Eh     change       -0.3390750E-05 Eh
   *** GEOMETRY OPTIMIZATION CONVERGED AFTER 36 ITERATIONS ***

 final structure:
================
42
 xtb: 6.5.1 (579679a)
C           -5.18959318641673       -1.34055847679022        1.95032303384329
O           -3.96702106621656       -1.04854684156073        1.26890841431859
C           -3.96637281156060        0.04139292629046        0.49580185881071
O           -4.93276172020704        0.75760160801187        0.37225586524403
C           -2.64756937213817        0.24164061934453       -0.17513901200884
N           -1.68640281877107       -0.68021215553566        0.14835267577126
C           -0.51772228645864       -0.59153719148070       -0.38481996876666
C            0.54464009874513       -1.62179086918986       -0.07262424464763
C            0.20839036684060       -2.34793499410717        1.23327522832641
C            0.61472058243260       -2.60175628011787       -1.25443011407471
N            1.81889735478099       -0.90824395677699        0.06604986254231
C            2.99661744841452       -1.53664222663834        0.27936709199144
O            3.16440791840082       -2.74358021301100        0.29296604431175
C            4.11410844981910       -0.58177984547105        0.48776233460469
N            5.36151569954246       -0.85540821908448        0.71160167066677
N            6.00934464556442        0.33652256089313        0.83946755801525
C            5.11751534421765        1.26524819796197        0.68688789407027
C            5.31398439791760        2.73033903264167        0.72994941171566
O            3.89633830567077        0.75152134343707        0.46267091298915
N           -0.21396991062299        0.38402565769822       -1.28748247026218
C           -1.08645900225325        1.37383610546049       -1.69253859135463
O           -0.72264684230236        2.20890689347290       -2.50716755577397
C           -2.40460373871433        1.27261462751913       -1.05811505261364
O           -3.38142475563884        2.14711899139584       -1.32255470542533
C           -3.21262029822021        3.25691033410562       -2.20480275846898
H           -5.98752529060584       -1.52606721110946        1.22695045860469
H           -5.00865658105291       -2.23144581928020        2.54827867700297
H           -5.47220580372035       -0.50318652029003        2.59296562118737
H           -0.76392358454522       -2.82888217331269        1.13881868011278
H            0.96421292641281       -3.10200648263025        1.44465826060626
H            0.17153825313407       -1.63484496147865        2.05522939463398
H           -0.37400318662139       -3.02255025046698       -1.43166047493280
H            1.31021552470888       -3.40939108732630       -1.03497336631448
H            0.94517640489301       -2.07872951413847       -2.14983950322747
H            1.78949918937815        0.08939667098621        0.19427163871290
H            4.72491129188552        3.16079480663324        1.53947557882372
H            6.36625140276917        2.95571939780652        0.88514904910142
H            4.97650383548585        3.17600241304930       -0.20532680238130
H            0.70319731494814        0.41707812610077       -1.70608926809495
H           -2.41655979759611        3.91798149945528       -1.85601278742020
H           -4.16504215242374        3.78859751416134       -2.18923195955243
H           -2.99490154987916        2.92184396337044       -3.22132158069140

          :  Hamiltonian                  GFN1-xTB          :
         :: total energy             -83.020612637479 Eh    ::
         :: gradient norm              0.000496246885 Eh/a0 ::
         :: HOMO-LUMO gap              2.757023378627 eV    ::
         :: SCC energy               -83.805055324347 Eh    ::
         :: -> Gsolv                  -0.057378568398 Eh    ::
         :: repulsion energy           0.809433054384 Eh    ::

    * Orbital Energies and Occupations

         #    Occupation            Energy/Eh            Energy/eV
      -------------------------------------------------------------
         1        2.0000           -0.8660776             -23.5672
       ...           ...                  ...                  ...
        55        2.0000           -0.5055083             -13.7556
        56        2.0000           -0.5021046             -13.6630
        57        2.0000           -0.4960229             -13.4975
        58        2.0000           -0.4849717             -13.1968
        59        2.0000           -0.4832658             -13.1503
        60        2.0000           -0.4803789             -13.0718
        61        2.0000           -0.4673359             -12.7169
        62        2.0000           -0.4619611             -12.5706
        63        2.0000           -0.4576086             -12.4522
        64        2.0000           -0.4523007             -12.3077
        65        2.0000           -0.4502552             -12.2521
        66        2.0000           -0.4472538             -12.1704
        67        2.0000           -0.4269827             -11.6188 (HOMO)
        68                         -0.3256639              -8.8618 (LUMO)
        69                         -0.3120522              -8.4914
        70                         -0.2853844              -7.7657
        71                         -0.2570811              -6.9955
        72                         -0.2406578              -6.5486
        73                         -0.1998351              -5.4378
        74                         -0.1614273              -4.3927
        75                         -0.1418936              -3.8611
        76                         -0.1374063              -3.7390
        77                         -0.1308072              -3.5594
        78                         -0.1280020              -3.4831
       ...                                ...                  ...
       134                          0.7342535              19.9801
      -------------------------------------------------------------
                  HL-Gap            0.1013187 Eh            2.7570 eV

Wiberg/Mayer (AO) data.
largest (>0.10) Wiberg bond orders for each atom

     #   Z sym  total        # sym  WBO       # sym  WBO       # sym  WBO
 ---------------------------------------------------------------------------
     1   6 C    3.873 --    27 H    0.986    28 H    0.979    26 H    0.979
                             2 O    0.899
     2   8 O    2.196 --     3 C    1.107     1 C    0.899     4 O    0.134
     3   6 C    3.852 --     4 O    1.660     2 O    1.107     5 C    1.003
     4   8 O    1.922 --     3 C    1.660     2 O    0.134
     5   6 C    3.963 --    23 C    1.478     6 N    1.186     3 C    1.003
     6   7 N    3.027 --     7 C    1.587     5 C    1.186
     7   6 C    3.931 --     6 N    1.587    20 N    1.168     8 C    0.982
     8   6 C    3.934 --     9 C    0.990     7 C    0.982    10 C    0.975
                            11 N    0.923
     9   6 C    3.988 --     8 C    0.990    31 H    0.985    29 H    0.983
                            30 H    0.982
    10   6 C    3.987 --    32 H    0.985    34 H    0.985    33 H    0.977
                             8 C    0.975
    11   7 N    3.337 --    12 C    1.246     8 C    0.923    35 H    0.893
                            13 O    0.174
    12   6 C    3.915 --    13 O    1.593    11 N    1.246    14 C    0.993
    13   8 O    1.908 --    12 C    1.593    11 N    0.174
    14   6 C    3.872 --    15 N    1.623    19 O    1.046    12 C    0.993
    15   7 N    3.000 --    14 C    1.623    16 N    1.199
    16   7 N    2.982 --    17 C    1.611    15 N    1.199
    17   6 C    3.868 --    16 N    1.611    19 O    1.072    18 C    1.032
    18   6 C    3.986 --    17 C    1.032    37 H    0.982    38 H    0.963
                            36 H    0.962
    19   8 O    2.316 --    17 C    1.072    14 C    1.046
    20   7 N    3.464 --     7 C    1.168    21 C    1.127    39 H    0.882
                            22 O    0.132
    21   6 C    3.908 --    22 O    1.579    20 N    1.127    23 C    1.065
    22   8 O    1.904 --    21 C    1.579    20 N    0.132
    23   6 C    3.919 --     5 C    1.478    24 O    1.104    21 C    1.065
    24   8 O    2.201 --    23 C    1.104    25 C    0.896
    25   6 C    3.871 --    41 H    0.984    40 H    0.979    42 H    0.978
                            24 O    0.896
    26   1 H    1.007 --     1 C    0.979
    27   1 H    1.011 --     1 C    0.986
    28   1 H    1.008 --     1 C    0.979
    29   1 H    1.010 --     9 C    0.983
    30   1 H    1.007 --     9 C    0.982
    31   1 H    1.004 --     9 C    0.985
    32   1 H    1.001 --    10 C    0.985
    33   1 H    1.010 --    10 C    0.977
    34   1 H    1.001 --    10 C    0.985
    35   1 H    0.938 --    11 N    0.893
    36   1 H    0.997 --    18 C    0.962
    37   1 H    0.998 --    18 C    0.982
    38   1 H    0.996 --    18 C    0.963
    39   1 H    0.928 --    20 N    0.882
    40   1 H    1.014 --    25 C    0.979
    41   1 H    1.012 --    25 C    0.984
    42   1 H    1.015 --    25 C    0.978
 ---------------------------------------------------------------------------

           -------------------------------------------------
          | TOTAL ENERGY              -83.020612637479 Eh   |
          | GRADIENT NORM               0.000496246885 Eh/α |
          | HOMO-LUMO GAP               2.757023378627 eV   |
           -------------------------------------------------

 * finished run on 2023/06/21 at 17:39:13.650
