   * xtb version 6.5.1 (579679a) compiled by 'ehlert@majestix' on 2022-07-11
          program call               : /lustre/hpc/kemi/ree/PhD/git/ReactivityQM/dep/xtb-6.5.1/bin/xtb --gfn 1 /lustre/hpc/kemi/ree/PhD/git/ReactivityQM/calculations/RaltegravirCLI/reac02prodE05/conf11/RaltegravirCLI_reac02prodE05_conf11_gfn1.xyz --opt --vfukui --chrg -1 --uhf 0 --alpb DMSO

   ID    Z sym.   atoms
    1    6 C      1, 3, 5-9, 11-13, 15-18, 21, 22, 24
    2    8 O      2, 23, 25
    3    7 N      4, 14, 19, 20
    4    9 F      10
    5    1 H      26-47

      * Solvation model:               ALPB
        Solvent                        DMSO
        Solvent mass                       7.8130E+01 g/mol
          :  Hamiltonian                  GFN1-xTB          :
 * total energy  :   -80.1421264 Eh     change       -0.3493028E-10 Eh
 * total energy  :   -80.1562225 Eh     change       -0.1409608E-01 Eh
 * total energy  :   -80.1624956 Eh     change       -0.6273068E-02 Eh
 * total energy  :   -80.1644871 Eh     change       -0.1991596E-02 Eh
 * total energy  :   -80.1662222 Eh     change       -0.1735037E-02 Eh
 * total energy  :   -80.1673773 Eh     change       -0.1155120E-02 Eh
 * total energy  :   -80.1679224 Eh     change       -0.5451029E-03 Eh
 * total energy  :   -80.1685029 Eh     change       -0.5804809E-03 Eh
 * total energy  :   -80.1687402 Eh     change       -0.2373169E-03 Eh
 * total energy  :   -80.1690625 Eh     change       -0.3222752E-03 Eh
 * total energy  :   -80.1821292 Eh     change       -0.1494072E-04 Eh
 * total energy  :   -80.1821598 Eh     change       -0.3057050E-04 Eh
 * total energy  :   -80.1821733 Eh     change       -0.1347424E-04 Eh
 * total energy  :   -80.1821818 Eh     change       -0.8504535E-05 Eh
 * total energy  :   -80.1821982 Eh     change       -0.1639274E-04 Eh
 * total energy  :   -80.1822100 Eh     change       -0.1181943E-04 Eh
 * total energy  :   -80.1822223 Eh     change       -0.1231605E-04 Eh
 * total energy  :   -80.1822314 Eh     change       -0.9139235E-05 Eh
 * total energy  :   -80.1822358 Eh     change       -0.4347973E-05 Eh
   *** GEOMETRY OPTIMIZATION CONVERGED AFTER 132 ITERATIONS ***

 final structure:
================
47
 xtb: 6.5.1 (579679a)
C            1.76484160408455       -1.30369898143228       -3.44050611954804
O            1.94902382655781       -1.03061910700668       -2.05221067935427
C            0.91371266255649       -0.31444953851073       -1.43928127644495
N            1.00513752409499        1.10992698139459       -1.60847828744551
C            1.30746099393733        1.86326522117267       -0.37256296638950
C            2.69734608467235        1.55897989403551        0.12112101379339
C            2.93563241499783        0.42621312100264        0.90320656079343
C            4.22213079268000        0.10055449693944        1.30921693937951
C            5.26162260772146        0.92306419461519        0.91589895158207
F            6.51456506594463        0.61993612164751        1.31529361272744
C            5.06831335433448        2.05023495978639        0.13652234979375
C            3.77516485761639        2.35793503929396       -0.26182119433104
C           -0.15793808447528       -0.91300919247228       -0.83037830733033
N           -1.11122114063068       -0.04948523883967       -0.27070557281179
C           -2.15901292709700       -0.49781524981366        0.33588762910489
C           -3.08757079215252        0.57511675598690        0.91824387604295
C           -2.63194450973159        1.96462873840172        0.44108339092745
C           -3.03379895912159        0.54533173784165        2.45215557941225
N           -4.47058980775214        0.35569614119949        0.48065149361741
N           -2.41988363452004       -1.82680845938498        0.47786363518297
C           -3.57231172320725       -2.38483898518435        1.17582210892951
C           -1.47797830484996       -2.82834041898419        0.00462323011063
O           -1.77050097471100       -4.03386663981096        0.22418868539521
C           -0.37061225437434       -2.31880051086150       -0.64868070544300
O            0.54762409711035       -3.25291679925227       -1.17422550494708
H            2.67692310710649       -1.78354983298311       -3.79913354240675
H            0.91296590203099       -1.97776573502225       -3.59930318072777
H            1.60040388385670       -0.38071636712801       -4.00799264951996
H            1.74599734505738        1.30422801893985       -2.27798619575430
H            0.55549210299949        1.59790440044897        0.37688746774874
H            1.20875323858076        2.92780168141536       -0.60634145643839
H            2.10481617738481       -0.20272388126281        1.20494605120490
H            4.41923265549756       -0.76875539253439        1.92398962852099
H            5.90871570843940        2.67017519591224       -0.14671415531123
H            3.60366395180661        3.23848537211540       -0.87081603643745
H           -2.59802871346737        1.99942239411664       -0.64735393771534
H           -3.33036430016270        2.72041774990948        0.79763743418610
H           -1.63905597602712        2.19295547503475        0.82693034155358
H           -2.00143212724792        0.64413717627711        2.78781390713980
H           -3.61135484435661        1.37563896415494        2.85736623163080
H           -3.44455084645639       -0.38105621171243        2.84922955428682
H           -4.54588613495987        0.55979950962277       -0.50773379913793
H           -5.07035047767487        1.00761654064029        0.96534379088487
H           -3.89654286370690       -3.28987654013140        0.65454557679848
H           -4.39802883143659       -1.67864889456538        1.18944689541385
H           -3.30421743430021       -2.65758241284820        2.20146458495480
H            1.40363970334472       -2.81414249216302       -1.28515495361433

          :  Hamiltonian                  GFN1-xTB          :
         :: total energy             -80.182235797590 Eh    ::
         :: gradient norm              0.000313846346 Eh/a0 ::
         :: HOMO-LUMO gap              1.019751524707 eV    ::
         :: SCC energy               -81.034317913950 Eh    ::
         :: -> Gsolv                  -0.111245289477 Eh    ::
         :: repulsion energy           0.883917003016 Eh    ::

    * Orbital Energies and Occupations

         #    Occupation            Energy/Eh            Energy/eV
      -------------------------------------------------------------
         1        2.0000           -0.8494043             -23.1135
       ...           ...                  ...                  ...
        56        2.0000           -0.4596989             -12.5090
        57        2.0000           -0.4552327             -12.3875
        58        2.0000           -0.4528695             -12.3232
        59        2.0000           -0.4346797             -11.8282
        60        2.0000           -0.4292654             -11.6809
        61        2.0000           -0.4180139             -11.3747
        62        2.0000           -0.4138485             -11.2614
        63        2.0000           -0.3975587             -10.8181
        64        2.0000           -0.3876212             -10.5477
        65        2.0000           -0.3809602             -10.3665
        66        2.0000           -0.3756720             -10.2226
        67        2.0000           -0.3569486              -9.7131
        68        2.0000           -0.2939111              -7.9977 (HOMO)
        69                         -0.2564360              -6.9780 (LUMO)
        70                         -0.2483395              -6.7577
        71                         -0.2179621              -5.9311
        72                         -0.1828326              -4.9751
        73                         -0.1286499              -3.5007
        74                         -0.1152497              -3.1361
        75                         -0.1119120              -3.0453
        76                         -0.1097717              -2.9870
        77                         -0.1009097              -2.7459
        78                         -0.0973742              -2.6497
        79                         -0.0940863              -2.5602
       ...                                ...                  ...
       144                          0.7094717              19.3057
      -------------------------------------------------------------
                  HL-Gap            0.0374752 Eh            1.0198 eV

Wiberg/Mayer (AO) data.
largest (>0.10) Wiberg bond orders for each atom

     #   Z sym  total        # sym  WBO       # sym  WBO       # sym  WBO
 ---------------------------------------------------------------------------
     1   6 C    3.919 --    26 H    0.986    28 H    0.983    27 H    0.982
                             2 O    0.933
     2   8 O    2.029 --     1 C    0.933     3 C    0.933
     3   6 C    3.794 --    13 C    1.517     4 N    0.992     2 O    0.933
     4   7 N    3.052 --     3 C    0.992     5 C    0.948    29 H    0.947
     5   6 C    3.973 --     6 C    1.006    31 H    0.979    30 H    0.969
                             4 N    0.948
     6   6 C    3.983 --    12 C    1.408     7 C    1.397     5 C    1.006
     7   6 C    3.991 --     8 C    1.445     6 C    1.397    32 H    0.972
                            11 C    0.107
     8   6 C    3.992 --     7 C    1.445     9 C    1.402    33 H    0.971
                            12 C    0.108
     9   6 C    3.849 --     8 C    1.402    11 C    1.396    10 F    0.911
    10   9 F    1.033 --     9 C    0.911
    11   6 C    3.988 --    12 C    1.446     9 C    1.396    34 H    0.971
                             7 C    0.107
    12   6 C    3.993 --    11 C    1.446     6 C    1.408    35 H    0.972
                             8 C    0.108
    13   6 C    3.952 --     3 C    1.517    24 C    1.169    14 N    1.079
    14   7 N    3.013 --    15 C    1.596    13 C    1.079    20 N    0.132
    15   6 C    3.943 --    14 N    1.596    20 N    1.198    16 C    0.967
    16   6 C    3.964 --    17 C    0.993    18 C    0.991    19 N    0.974
                            15 C    0.967
    17   6 C    3.996 --    16 C    0.993    37 H    0.986    36 H    0.984
                            38 H    0.981
    18   6 C    3.995 --    16 C    0.991    39 H    0.986    40 H    0.985
                            41 H    0.982
    19   7 N    2.990 --    16 C    0.974    43 H    0.948    42 H    0.947
    20   7 N    3.399 --    15 C    1.198    21 C    0.955    22 C    0.938
                            14 N    0.132
    21   6 C    3.956 --    46 H    0.981    44 H    0.979    45 H    0.975
                            20 N    0.955
    22   6 C    3.910 --    24 C    1.402    23 O    1.395    20 N    0.938
    23   8 O    1.723 --    22 C    1.395    24 C    0.136
    24   6 C    3.841 --    22 C    1.402    13 C    1.169    25 O    0.953
                            23 O    0.136
    25   8 O    1.932 --    24 C    0.953    47 H    0.858
    26   1 H    1.019 --     1 C    0.986
    27   1 H    1.026 --     1 C    0.982
    28   1 H    1.015 --     1 C    0.983
    29   1 H    0.976 --     4 N    0.947
    30   1 H    1.037 --     5 C    0.969
    31   1 H    1.013 --     5 C    0.979
    32   1 H    1.011 --     7 C    0.972
    33   1 H    1.000 --     8 C    0.971
    34   1 H    1.000 --    11 C    0.971
    35   1 H    1.002 --    12 C    0.972
    36   1 H    1.018 --    17 C    0.984
    37   1 H    1.006 --    17 C    0.986
    38   1 H    1.020 --    17 C    0.981
    39   1 H    1.006 --    18 C    0.986
    40   1 H    1.003 --    18 C    0.985
    41   1 H    1.007 --    18 C    0.982
    42   1 H    0.964 --    19 N    0.947
    43   1 H    0.962 --    19 N    0.948
    44   1 H    1.024 --    21 C    0.979
    45   1 H    1.034 --    21 C    0.975
    46   1 H    1.011 --    21 C    0.981
    47   1 H    0.902 --    25 O    0.858
 ---------------------------------------------------------------------------

           -------------------------------------------------
          | TOTAL ENERGY              -80.182235797590 Eh   |
          | GRADIENT NORM               0.000313846346 Eh/α |
          | HOMO-LUMO GAP               1.019751524707 eV   |
           -------------------------------------------------

 * finished run on 2023/06/20 at 15:02:51.798
