   * xtb version 6.5.1 (579679a) compiled by 'ehlert@majestix' on 2022-07-11
          program call               : /lustre/hpc/kemi/ree/PhD/git/ReactivityQM/dep/xtb-6.5.1/bin/xtb --gfn 1 /lustre/hpc/kemi/ree/PhD/git/ReactivityQM/calculations/R03/reac02prodN14/conf07/R03_reac02prodN14_conf07_gfn1.xyz --opt --vfukui --chrg 1 --uhf 0 --alpb DMSO

   ID    Z sym.   atoms
    1    6 C      1, 3, 5, 6, 8, 9, 12-16, 18, 20, 23, 24
    2    8 O      2, 4, 7, 10, 19, 25
    3    7 N      11, 17, 21, 22, 26
    4    1 H      27-46

      * Solvation model:               ALPB
        Solvent                        DMSO
        Solvent mass                       7.8130E+01 g/mol
          :  Hamiltonian                  GFN1-xTB          :
 * total energy  :   -86.2046866 Eh     change       -0.2305853E-09 Eh
 * total energy  :   -86.2263425 Eh     change       -0.2165583E-01 Eh
 * total energy  :   -86.2390731 Eh     change       -0.1273061E-01 Eh
 * total energy  :   -86.2436262 Eh     change       -0.4553126E-02 Eh
 * total energy  :   -86.2476774 Eh     change       -0.4051189E-02 Eh
 * total energy  :   -86.2499756 Eh     change       -0.2298220E-02 Eh
 * total energy  :   -86.2514463 Eh     change       -0.1470719E-02 Eh
 * total energy  :   -86.2523503 Eh     change       -0.9039414E-03 Eh
 * total energy  :   -86.2528465 Eh     change       -0.4962096E-03 Eh
 * total energy  :   -86.2533821 Eh     change       -0.5356161E-03 Eh
 * total energy  :   -86.3059383 Eh     change       -0.3297523E-04 Eh
 * total energy  :   -86.3059610 Eh     change       -0.2271368E-04 Eh
 * total energy  :   -86.3059792 Eh     change       -0.1821977E-04 Eh
 * total energy  :   -86.3059878 Eh     change       -0.8543372E-05 Eh
 * total energy  :   -86.3060003 Eh     change       -0.1252469E-04 Eh
 * total energy  :   -86.3060085 Eh     change       -0.8243201E-05 Eh
 * total energy  :   -86.3060129 Eh     change       -0.4351082E-05 Eh
 * total energy  :   -86.3060177 Eh     change       -0.4836096E-05 Eh
 * total energy  :   -86.3060210 Eh     change       -0.3227671E-05 Eh
   *** GEOMETRY OPTIMIZATION CONVERGED AFTER 64 ITERATIONS ***

 final structure:
================
46
 xtb: 6.5.1 (579679a)
C           -2.57646797343965        3.17218857357831       -2.87373325201639
O           -2.47466069015959        2.04367766424463       -1.98225373841923
C           -1.53132044164183        1.15320865553168       -2.19442288260407
O           -0.73372463628069        1.14777000428812       -3.08880795631135
C           -1.55672469254181        0.07781247112502       -1.11704267521514
C           -2.80302382188268       -0.29714638907692       -0.37190258120939
O           -3.97567907312615       -0.07675149338495       -1.07754629516651
C           -2.74553120965200       -1.77819977503740       -0.02783177841097
C           -2.80505381746209        0.46042770528959        0.98627738015365
O           -3.69030632795657       -2.47946401085323        0.14140206080886
N           -1.41356857412327       -2.28871314219700        0.23869719522097
C           -1.41897728749387       -3.65154970910638        0.77843354766636
C           -0.34313309040080       -1.54411102263810        0.02043054209910
C            1.05745966213153       -1.83003360917694        0.49099791261763
C            1.15045777111142       -2.37146307709140        1.92432514106725
C            1.69032769901245       -2.78970410781908       -0.54399289025023
N            1.76365276629323       -0.55175671287647        0.44233814001287
C            3.09736330333436       -0.43546645924353        0.67389350908567
O            3.85505748776180       -1.36785170331686        0.86676975632851
C            3.55400057756764        0.97018974437593        0.68076782416735
N            4.76237522256593        1.40018121567252        0.87086595299327
N            4.70809049968435        2.75731323699467        0.82787558269423
C            3.46897956955855        3.07769717718710        0.61551867728389
C            2.89747070158172        4.43476664068068        0.48692408929608
O            2.68489931122150        1.99100577924682        0.50985651224745
N           -0.43915438846845       -0.48277074561964       -0.82516379425021
H           -2.14621533374825        2.92166965460711       -3.84435194508859
H           -3.63541823745079        3.40374905506845       -2.96399807290847
H           -2.04552716105999        4.01352399773240       -2.42818437816138
H           -4.17033173624916        0.86689216309739       -1.16476337256982
H           -2.83776333332761        1.52776333573118        0.77966369616715
H           -3.69338032243580        0.16723663398027        1.54241123936662
H           -1.91053950956923        0.22410567946132        1.55635592096187
H           -1.59837851222848       -3.60399767924026        1.85124281302668
H           -2.23473178727250       -4.19162517178323        0.29949231200928
H           -0.47880492366073       -4.14312858123913        0.56294991334800
H            0.85143055962109       -3.41308135665830        1.98252351039343
H            2.18709990695430       -2.30051027645042        2.25060619816582
H            0.52733865931059       -1.77487327503043        2.58677420333269
H            1.10744205386066       -3.70267006147034       -0.62942470090656
H            1.73364987514968       -2.29797606979426       -1.51404679717543
H            2.69697309561000       -3.04179573565639       -0.21558700521032
H            1.21282680115510        0.28680367637700        0.35337483488614
H            2.63022720937259        4.62785278511241       -0.55241851515354
H            3.62742201802951        5.17368547031591        0.81126250171725
H            1.99387113075893        4.51511784505023        1.08878966391877

          :  Hamiltonian                  GFN1-xTB          :
         :: total energy             -86.306020952827 Eh    ::
         :: gradient norm              0.000781418542 Eh/a0 ::
         :: HOMO-LUMO gap              0.957423876809 eV    ::
         :: SCC energy               -87.136739507206 Eh    ::
         :: -> Gsolv                  -0.121674187403 Eh    ::
         :: repulsion energy           0.860696665413 Eh    ::

    * Orbital Energies and Occupations

         #    Occupation            Energy/Eh            Energy/eV
      -------------------------------------------------------------
         1        2.0000           -0.8977895             -24.4301
       ...           ...                  ...                  ...
        58        2.0000           -0.5351596             -14.5624
        59        2.0000           -0.5328628             -14.4999
        60        2.0000           -0.5304939             -14.4355
        61        2.0000           -0.5249010             -14.2833
        62        2.0000           -0.5207039             -14.1691
        63        2.0000           -0.5143589             -13.9964
        64        2.0000           -0.5117851             -13.9264
        65        2.0000           -0.4905778             -13.3493
        66        2.0000           -0.4896065             -13.3229
        67        2.0000           -0.4800854             -13.0638
        68        2.0000           -0.4776735             -12.9982
        69        2.0000           -0.4621055             -12.5745
        70        2.0000           -0.4614012             -12.5554 (HOMO)
        71                         -0.4262165             -11.5979 (LUMO)
        72                         -0.3541542              -9.6370
        73                         -0.3248201              -8.8388
        74                         -0.3138298              -8.5397
        75                         -0.2694209              -7.3313
        76                         -0.2647177              -7.2033
        77                         -0.2114875              -5.7549
        78                         -0.1772396              -4.8229
        79                         -0.1570134              -4.2726
        80                         -0.1512136              -4.1147
        81                         -0.1504772              -4.0947
       ...                                ...                  ...
       144                          0.7286949              19.8288
      -------------------------------------------------------------
                  HL-Gap            0.0351847 Eh            0.9574 eV

Wiberg/Mayer (AO) data.
largest (>0.10) Wiberg bond orders for each atom

     #   Z sym  total        # sym  WBO       # sym  WBO       # sym  WBO
 ---------------------------------------------------------------------------
     1   6 C    3.833 --    28 H    0.979    27 H    0.979    29 H    0.974
                             2 O    0.861
     2   8 O    2.245 --     3 C    1.159     1 C    0.861     4 O    0.157
     3   6 C    3.864 --     4 O    1.705     2 O    1.159     5 C    0.931
     4   8 O    1.982 --     3 C    1.705     2 O    0.157
     5   6 C    3.901 --    26 N    1.674     6 C    0.989     3 C    0.931
     6   6 C    3.939 --     7 O    0.998     5 C    0.989     8 C    0.938
                             9 C    0.890
     7   8 O    1.919 --     6 C    0.998    30 H    0.823
     8   6 C    3.852 --    10 O    1.817    11 N    0.957     6 C    0.938
     9   6 C    3.966 --    33 H    0.984    31 H    0.975    32 H    0.974
                             6 C    0.890
    10   8 O    2.060 --     8 C    1.817
    11   7 N    3.554 --    13 C    1.421     8 C    0.957    12 C    0.905
    12   6 C    3.883 --    36 H    0.975    35 H    0.964    34 H    0.962
                            11 N    0.905
    13   6 C    3.884 --    11 N    1.421    26 N    1.212    14 C    1.010
    14   6 C    3.933 --    13 C    1.010    15 C    0.972    17 N    0.945
                            16 C    0.928
    15   6 C    3.978 --    39 H    0.984    37 H    0.979    38 H    0.972
                            14 C    0.972
    16   6 C    3.969 --    41 H    0.983    40 H    0.979    42 H    0.965
                            14 C    0.928
    17   7 N    3.326 --    18 C    1.218    14 C    0.945    43 H    0.882
                            19 O    0.165
    18   6 C    3.910 --    19 O    1.602    17 N    1.218    20 C    1.003
    19   8 O    1.919 --    18 C    1.602    17 N    0.165
    20   6 C    3.876 --    21 N    1.615    25 O    1.046    18 C    1.003
    21   7 N    3.004 --    20 C    1.615    22 N    1.207
    22   7 N    2.983 --    23 C    1.603    21 N    1.207
    23   6 C    3.865 --    22 N    1.603    25 O    1.072    24 C    1.033
    24   6 C    3.985 --    23 C    1.033    45 H    0.980    46 H    0.967
                            44 H    0.957
    25   8 O    2.315 --    23 C    1.072    20 C    1.046
    26   7 N    3.127 --     5 C    1.674    13 C    1.212
    27   1 H    1.002 --     1 C    0.979
    28   1 H    1.003 --     1 C    0.979
    29   1 H    1.000 --     1 C    0.974
    30   1 H    0.851 --     7 O    0.823
    31   1 H    0.995 --     9 C    0.975
    32   1 H    0.992 --     9 C    0.974
    33   1 H    0.994 --     9 C    0.984
    34   1 H    0.991 --    12 C    0.962
    35   1 H    0.995 --    12 C    0.964
    36   1 H    1.001 --    12 C    0.975
    37   1 H    0.998 --    15 C    0.979
    38   1 H    1.000 --    15 C    0.972
    39   1 H    0.996 --    15 C    0.984
    40   1 H    0.998 --    16 C    0.979
    41   1 H    0.997 --    16 C    0.983
    42   1 H    1.003 --    16 C    0.965
    43   1 H    0.940 --    17 N    0.882
    44   1 H    0.996 --    24 C    0.957
    45   1 H    0.997 --    24 C    0.980
    46   1 H    0.996 --    24 C    0.967
 ---------------------------------------------------------------------------

           -------------------------------------------------
          | TOTAL ENERGY              -86.306020952827 Eh   |
          | GRADIENT NORM               0.000781418542 Eh/α |
          | HOMO-LUMO GAP               0.957423876809 eV   |
           -------------------------------------------------

 * finished run on 2023/06/20 at 15:50:22.569
