   * xtb version 6.5.1 (579679a) compiled by 'ehlert@majestix' on 2022-07-11
          program call               : /lustre/hpc/kemi/ree/PhD/git/ReactivityQM/dep/xtb-6.5.1/bin/xtb --gfn 1 /lustre/hpc/kemi/ree/PhD/git/ReactivityQM/calculations/R02deprot/reac01prodN05/conf08/R02deprot_reac01prodN05_conf08_gfn1.xyz --opt --vfukui --chrg 0 --uhf 0 --alpb DMSO

   ID    Z sym.   atoms
    1    6 C      1, 3, 5, 7-10, 12, 14, 17, 18, 21, 23, 25
    2    8 O      2, 4, 13, 19, 22, 24
    3    7 N      6, 11, 15, 16, 20
    4    1 H      26-42

      * Solvation model:               ALPB
        Solvent                        DMSO
        Solvent mass                       7.8130E+01 g/mol
          :  Hamiltonian                  GFN1-xTB          :
 * total energy  :   -82.9188751 Eh     change       -0.1622880E-10 Eh
 * total energy  :   -82.9351732 Eh     change       -0.1629804E-01 Eh
 * total energy  :   -82.9415237 Eh     change       -0.6350561E-02 Eh
 * total energy  :   -82.9430770 Eh     change       -0.1553221E-02 Eh
 * total energy  :   -82.9440839 Eh     change       -0.1006907E-02 Eh
 * total energy  :   -82.9446474 Eh     change       -0.5635423E-03 Eh
 * total energy  :   -82.9451571 Eh     change       -0.5096700E-03 Eh
 * total energy  :   -82.9455760 Eh     change       -0.4189198E-03 Eh
 * total energy  :   -82.9458835 Eh     change       -0.3075071E-03 Eh
 * total energy  :   -82.9460868 Eh     change       -0.2033383E-03 Eh
 * total energy  :   -82.9478994 Eh     change       -0.3230559E-04 Eh
 * total energy  :   -82.9479196 Eh     change       -0.2013105E-04 Eh
 * total energy  :   -82.9479313 Eh     change       -0.1170781E-04 Eh
 * total energy  :   -82.9479435 Eh     change       -0.1220099E-04 Eh
 * total energy  :   -82.9479520 Eh     change       -0.8494639E-05 Eh
 * total energy  :   -82.9479637 Eh     change       -0.1172654E-04 Eh
 * total energy  :   -82.9479691 Eh     change       -0.5373163E-05 Eh
 * total energy  :   -82.9479752 Eh     change       -0.6146701E-05 Eh
 * total energy  :   -82.9479792 Eh     change       -0.4018089E-05 Eh
   *** GEOMETRY OPTIMIZATION CONVERGED AFTER 46 ITERATIONS ***

 final structure:
================
42
 xtb: 6.5.1 (579679a)
C           -6.22597715527572       -1.29569582076619        0.74985409576607
O           -4.99020600856365       -0.82911684779208        0.17281889115095
C           -3.89924072869237       -0.91697243298911        0.96277074964640
O           -3.94280963721751       -1.35578695454966        2.08027490603624
C           -2.66170705095472       -0.41075958532874        0.28925389289481
N           -1.53954034578020       -0.55017815369554        1.00752590178817
C           -0.39949041349940       -0.14472457964023        0.44159380186234
C            0.84162214192133       -0.33105383168755        1.29909395622925
C            0.75196144282412        0.62001811266919        2.50184565296130
C            0.92738498053005       -1.79195856668791        1.76048125394305
N            2.00003648892368        0.00575558348760        0.47774725193280
C            3.27198945294815       -0.07008238053796        0.89443317931019
O            3.64010082765735       -0.39824552783936        2.01208285593763
C            4.21656543448579        0.29337338959172       -0.19858728733517
N            3.89765411358210        0.66987061849617       -1.39985141928713
N            5.06666892682871        0.87640553832185       -2.07115646368874
C            6.02373019063317        0.61081649744457       -1.23581963825884
C            7.48111800069418        0.67201565216587       -1.48457725053189
O            5.55212253741250        0.23842125400270       -0.03665816921080
N           -0.25898913351691        0.39634071705451       -0.74601334224802
C           -1.35369828134205        0.60752241045949       -1.54821797864632
O           -1.27751222138437        1.14095004428233       -2.65667842251012
C           -2.59860592315163        0.14751061375070       -0.96461467407560
O           -3.77660554559186        0.27761018074848       -1.78814453914066
C           -4.17754173686003        1.63968178218473       -2.12880528648183
H           -6.44359473666079       -0.72504468128258        1.65428675392370
H           -6.13836295663592       -2.35649633728801        0.99153694069427
H           -6.99625055379065       -1.13456530015121        0.00075987508279
H           -0.16533407709547        0.41358756794942        3.05114792020927
H            1.60575222605688        0.47609925117224        3.16212451592316
H            0.73513617627696        1.65334789655439        2.15784991245777
H            1.76509604730509       -1.92674991350511        2.44246806266213
H            1.05764635163067       -2.44683014686822        0.89988170570474
H            0.00303310676647       -2.05712810528243        2.27130923164820
H            1.79640503361692        0.30426338059427       -0.47198415579875
H            7.66361258851480        0.97865742086412       -2.51130286168597
H            7.92923577877728       -0.30604839718423       -1.31022875280276
H            7.94793203666060        1.38288779517673       -0.80322245507168
H           -4.52298472786595       -0.18255291794427       -1.30787397396501
H           -3.37186645942344        2.06582104550467       -2.72465531089816
H           -5.09041792755882        1.55044926125207       -2.71094008311944
H           -4.34406526318178        2.20858346728627       -1.21520624300335

          :  Hamiltonian                  GFN1-xTB          :
         :: total energy             -82.947979228716 Eh    ::
         :: gradient norm              0.000834809531 Eh/a0 ::
         :: HOMO-LUMO gap              2.377392440217 eV    ::
         :: SCC energy               -83.721460246518 Eh    ::
         :: -> Gsolv                  -0.070529400179 Eh    ::
         :: repulsion energy           0.798766381046 Eh    ::

    * Orbital Energies and Occupations

         #    Occupation            Energy/Eh            Energy/eV
      -------------------------------------------------------------
         1        2.0000           -0.8984249             -24.4474
       ...           ...                  ...                  ...
        55        2.0000           -0.4957924             -13.4912
        56        2.0000           -0.4944211             -13.4539
        57        2.0000           -0.4899379             -13.3319
        58        2.0000           -0.4789208             -13.0321
        59        2.0000           -0.4723839             -12.8542
        60        2.0000           -0.4697307             -12.7820
        61        2.0000           -0.4595557             -12.5051
        62        2.0000           -0.4554913             -12.3946
        63        2.0000           -0.4477180             -12.1830
        64        2.0000           -0.4388981             -11.9430
        65        2.0000           -0.4384424             -11.9306
        66        2.0000           -0.4208582             -11.4521
        67        2.0000           -0.4122640             -11.2183 (HOMO)
        68                         -0.3248965              -8.8409 (LUMO)
        69                         -0.3041688              -8.2769
        70                         -0.2687055              -7.3119
        71                         -0.2542993              -6.9198
        72                         -0.2311998              -6.2913
        73                         -0.1925025              -5.2383
        74                         -0.1652724              -4.4973
        75                         -0.1507720              -4.1027
        76                         -0.1442334              -3.9248
        77                         -0.1419563              -3.8628
        78                         -0.1411103              -3.8398
       ...                                ...                  ...
       134                          0.7382883              20.0898
      -------------------------------------------------------------
                  HL-Gap            0.0873676 Eh            2.3774 eV

Wiberg/Mayer (AO) data.
largest (>0.10) Wiberg bond orders for each atom

     #   Z sym  total        # sym  WBO       # sym  WBO       # sym  WBO
 ---------------------------------------------------------------------------
     1   6 C    3.847 --    28 H    0.986    26 H    0.979    27 H    0.979
                             2 O    0.869
     2   8 O    2.214 --     3 C    1.065     1 C    0.869     4 O    0.129
     3   6 C    3.834 --     4 O    1.710     2 O    1.065     5 C    0.981
     4   8 O    1.965 --     3 C    1.710     2 O    0.129
     5   6 C    3.977 --    23 C    1.469     6 N    1.318     3 C    0.981
     6   7 N    3.008 --     7 C    1.347     5 C    1.318
     7   6 C    3.948 --    20 N    1.471     6 N    1.347     8 C    0.979
     8   6 C    3.935 --    10 C    0.983     7 C    0.979     9 C    0.977
                            11 N    0.929
     9   6 C    3.991 --    31 H    0.986    29 H    0.985    30 H    0.982
                             8 C    0.977
    10   6 C    3.991 --    33 H    0.986    34 H    0.984     8 C    0.983
                            32 H    0.982
    11   7 N    3.370 --    12 C    1.282     8 C    0.929    35 H    0.877
                            13 O    0.184
    12   6 C    3.922 --    13 O    1.575    11 N    1.282    14 C    0.984
    13   8 O    1.894 --    12 C    1.575    11 N    0.184
    14   6 C    3.872 --    15 N    1.616    19 O    1.062    12 C    0.984
    15   7 N    3.011 --    14 C    1.616    16 N    1.195
    16   7 N    2.980 --    17 C    1.610    15 N    1.195
    17   6 C    3.873 --    16 N    1.610    19 O    1.082    18 C    1.031
    18   6 C    3.987 --    17 C    1.031    36 H    0.983    37 H    0.964
                            38 H    0.964
    19   8 O    2.327 --    17 C    1.082    14 C    1.062
    20   7 N    3.030 --     7 C    1.471    21 C    1.166    22 O    0.108
    21   6 C    3.930 --    22 O    1.525    20 N    1.166    23 C    1.127
    22   8 O    1.844 --    21 C    1.525    20 N    0.108
    23   6 C    3.779 --     5 C    1.469    21 C    1.127    24 O    0.822
    24   8 O    2.434 --    23 C    0.822    25 C    0.818    39 H    0.711
    25   6 C    3.794 --    42 H    0.984    41 H    0.981    40 H    0.973
                            24 O    0.818
    26   1 H    1.004 --     1 C    0.979
    27   1 H    1.004 --     1 C    0.979
    28   1 H    1.007 --     1 C    0.986
    29   1 H    1.008 --     9 C    0.985
    30   1 H    1.010 --     9 C    0.982
    31   1 H    1.004 --     9 C    0.986
    32   1 H    1.010 --    10 C    0.982
    33   1 H    1.003 --    10 C    0.986
    34   1 H    1.013 --    10 C    0.984
    35   1 H    0.973 --    11 N    0.877
    36   1 H    0.999 --    18 C    0.983
    37   1 H    0.997 --    18 C    0.964
    38   1 H    0.997 --    18 C    0.964
    39   1 H    0.818 --    24 O    0.711
    40   1 H    1.016 --    25 C    0.973
    41   1 H    0.997 --    25 C    0.981
    42   1 H    0.998 --    25 C    0.984
 ---------------------------------------------------------------------------

           -------------------------------------------------
          | TOTAL ENERGY              -82.947979228716 Eh   |
          | GRADIENT NORM               0.000834809531 Eh/α |
          | HOMO-LUMO GAP               2.377392440217 eV   |
           -------------------------------------------------

 * finished run on 2023/06/20 at 18:10:13.940
