   * xtb version 6.5.1 (579679a) compiled by 'ehlert@majestix' on 2022-07-11
          program call               : /lustre/hpc/kemi/ree/PhD/git/ReactivityQM/dep/xtb-6.5.1/bin/xtb --gfn 1 /lustre/hpc/kemi/ree/PhD/git/ReactivityQM/calculations/R02oxygendeprot/reac01prodN09/conf09/R02oxygendeprot_reac01prodN09_conf09_gfn1.xyz --opt --vfukui --chrg 0 --uhf 0 --alpb DMSO

   ID    Z sym.   atoms
    1    6 C      1, 3, 4, 6, 8-11, 13, 15, 18, 19, 22, 24
    2    8 O      2, 5, 14, 20, 23, 25
    3    7 N      7, 12, 16, 17, 21
    4    1 H      26-42

      * Solvation model:               ALPB
        Solvent                        DMSO
        Solvent mass                       7.8130E+01 g/mol
          :  Hamiltonian                  GFN1-xTB          :
 * total energy  :   -82.8653991 Eh     change       -0.2223359E-08 Eh
 * total energy  :   -82.8785883 Eh     change       -0.1318918E-01 Eh
 * total energy  :   -82.8853312 Eh     change       -0.6742964E-02 Eh
 * total energy  :   -82.8872231 Eh     change       -0.1891866E-02 Eh
 * total energy  :   -82.8890992 Eh     change       -0.1876118E-02 Eh
 * total energy  :   -82.8910926 Eh     change       -0.1993430E-02 Eh
 * total energy  :   -82.8934196 Eh     change       -0.2326976E-02 Eh
 * total energy  :   -82.8965013 Eh     change       -0.3081664E-02 Eh
 * total energy  :   -82.9006639 Eh     change       -0.4162636E-02 Eh
 * total energy  :   -82.9063888 Eh     change       -0.5724855E-02 Eh
 * total energy  :   -83.0046713 Eh     change       -0.1065208E-04 Eh
 * total energy  :   -83.0046769 Eh     change       -0.5559016E-05 Eh
 * total energy  :   -83.0046847 Eh     change       -0.7769101E-05 Eh
 * total energy  :   -83.0046941 Eh     change       -0.9415244E-05 Eh
 * total energy  :   -83.0047018 Eh     change       -0.7760658E-05 Eh
 * total energy  :   -83.0047093 Eh     change       -0.7449628E-05 Eh
 * total energy  :   -83.0047164 Eh     change       -0.7080567E-05 Eh
 * total energy  :   -83.0047221 Eh     change       -0.5764931E-05 Eh
 * total energy  :   -83.0047266 Eh     change       -0.4446728E-05 Eh
   *** GEOMETRY OPTIMIZATION CONVERGED AFTER 101 ITERATIONS ***

 final structure:
================
42
 xtb: 6.5.1 (579679a)
C           -2.67735830267359        0.47210653054422        3.95881349540797
O           -2.68818228694128        0.74800929125397        2.54861595572893
C           -2.11624901917588       -0.13407206048141        1.75931841197640
C           -2.34180664751774        1.80572671084540        0.11091433139412
O           -1.61133601130497       -1.16507084666492        2.11410443179635
C           -2.19460800701203        0.29189502248202        0.26258128536300
N           -0.94903053766480       -0.14137243773794       -0.32460425422441
C           -0.82928975567180       -1.29676690095635       -0.83243673178971
C            0.51838125107520       -1.76088202021463       -1.35112754725126
C            0.45625683263124       -1.92061140526812       -2.87694400731121
C            0.92572330982635       -3.07305461972051       -0.66597203185360
N            1.47196174507558       -0.71277391591276       -1.00086615104245
C            2.78326916135751       -0.75938493082985       -1.29356410077548
O            3.34318682738322       -1.65769815591822       -1.90293894424623
C            3.52634782521055        0.42149605956532       -0.78210966479556
N            4.79688541698103        0.65863206516163       -0.88724341545015
N            5.03031900516583        1.84311884983399       -0.25513510966921
C            3.88820019040701        2.25581893877721        0.19876393408325
C            3.61285625844048        3.49187005896122        0.96284475953174
O            2.89426517562393        1.40268119396802       -0.10078728578038
N           -1.88117475335067       -2.19087605568029       -0.97317670707843
C           -3.18759134875005       -1.87889903977744       -0.73903835954953
O           -4.08714287522449       -2.66776639874393       -0.91643895910488
C           -3.41715590947998       -0.44064286949122       -0.25941379945806
O           -4.51546617500804        0.04931431042714       -0.26420023514503
H           -3.25058534734486        1.26691120514490        4.43005194383699
H           -1.64878795051210        0.47390182513330        4.32330224613571
H           -3.13382906076802       -0.50070563686883        4.15083659187635
H           -2.29556121558207        2.06481510651927       -0.94503305190954
H           -1.53438927819417        2.30763928650222        0.63768047660986
H           -3.29789291133467        2.12790610024628        0.51870689548605
H            1.41891169373436       -2.26712014826817       -3.24865611223650
H            0.21594700120819       -0.96528231549122       -3.34044046772606
H           -0.30744967195746       -2.64860752371037       -3.14194712693849
H            0.22977730308688       -3.86679589064178       -0.92793989599596
H            1.92144732478205       -3.36315415725642       -0.99664934842839
H            0.92966620930519       -2.94142768033109        0.41496507739829
H            1.09292393427009        0.08336795635628       -0.50341778681262
H            4.54062690700178        4.03515106696702        1.12587862656844
H            2.91345648890892        4.12170496534891        0.41354697488374
H            3.16045689962505        3.24349781365127        1.92260433318989
H           -1.70597969563496       -3.12066934770387       -1.32344867669152

          :  Hamiltonian                  GFN1-xTB          :
         :: total energy             -83.004726586565 Eh    ::
         :: gradient norm              0.000762265682 Eh/a0 ::
         :: HOMO-LUMO gap              2.408084357542 eV    ::
         :: SCC energy               -83.792682945549 Eh    ::
         :: -> Gsolv                  -0.054417110456 Eh    ::
         :: repulsion energy           0.814670332692 Eh    ::

    * Orbital Energies and Occupations

         #    Occupation            Energy/Eh            Energy/eV
      -------------------------------------------------------------
         1        2.0000           -0.8651652             -23.5423
       ...           ...                  ...                  ...
        55        2.0000           -0.5108615             -13.9012
        56        2.0000           -0.5054655             -13.7544
        57        2.0000           -0.5044180             -13.7259
        58        2.0000           -0.5031106             -13.6903
        59        2.0000           -0.4921109             -13.3910
        60        2.0000           -0.4797494             -13.0546
        61        2.0000           -0.4709810             -12.8160
        62        2.0000           -0.4635289             -12.6133
        63        2.0000           -0.4620605             -12.5733
        64        2.0000           -0.4588702             -12.4865
        65        2.0000           -0.4513007             -12.2805
        66        2.0000           -0.4474662             -12.1762
        67        2.0000           -0.4419405             -12.0258 (HOMO)
        68                         -0.3534450              -9.6177 (LUMO)
        69                         -0.3094721              -8.4212
        70                         -0.2976439              -8.0993
        71                         -0.2704949              -7.3605
        72                         -0.2567214              -6.9857
        73                         -0.2258630              -6.1460
        74                         -0.1973014              -5.3688
        75                         -0.1460817              -3.9751
        76                         -0.1430466              -3.8925
        77                         -0.1420937              -3.8666
        78                         -0.1259474              -3.4272
       ...                                ...                  ...
       134                          0.7585672              20.6417
      -------------------------------------------------------------
                  HL-Gap            0.0884955 Eh            2.4081 eV

Wiberg/Mayer (AO) data.
largest (>0.10) Wiberg bond orders for each atom

     #   Z sym  total        # sym  WBO       # sym  WBO       # sym  WBO
 ---------------------------------------------------------------------------
     1   6 C    3.852 --    26 H    0.985    28 H    0.980    27 H    0.979
                             2 O    0.874
     2   8 O    2.232 --     3 C    1.159     1 C    0.874     5 O    0.140
     3   6 C    3.845 --     5 O    1.697     2 O    1.159     6 C    0.863
     4   6 C    3.984 --    30 H    0.985    29 H    0.983    31 H    0.982
                             6 C    0.981
     5   8 O    1.965 --     3 C    1.697     2 O    0.140
     6   6 C    3.962 --     4 C    0.981     7 N    0.979    24 C    0.950
                             3 C    0.863
     7   7 N    3.049 --     8 C    1.751     6 C    0.979
     8   6 C    3.926 --     7 N    1.751    21 N    1.072     9 C    0.980
     9   6 C    3.939 --     8 C    0.980    11 C    0.979    10 C    0.976
                            12 N    0.937
    10   6 C    3.986 --    33 H    0.985    34 H    0.984    32 H    0.978
                             9 C    0.976
    11   6 C    3.987 --    37 H    0.985    35 H    0.982     9 C    0.979
                            36 H    0.977
    12   7 N    3.360 --    13 C    1.270     9 C    0.937    38 H    0.875
                            14 O    0.179
    13   6 C    3.919 --    14 O    1.576    12 N    1.270    15 C    0.991
    14   8 O    1.897 --    13 C    1.576    12 N    0.179
    15   6 C    3.872 --    16 N    1.624    20 O    1.047    13 C    0.991
    16   7 N    2.999 --    15 C    1.624    17 N    1.197
    17   7 N    2.982 --    18 C    1.613    16 N    1.197
    18   6 C    3.869 --    17 N    1.613    20 O    1.072    19 C    1.031
    19   6 C    3.987 --    18 C    1.031    39 H    0.982    41 H    0.964
                            40 H    0.963
    20   8 O    2.315 --    18 C    1.072    15 C    1.047
    21   7 N    3.429 --    22 C    1.183     8 C    1.072    42 H    0.880
                            23 O    0.148
    22   6 C    3.892 --    23 O    1.676    21 N    1.183    24 C    0.907
    23   8 O    1.960 --    22 C    1.676    21 N    0.148
    24   6 C    3.848 --    25 O    1.813     6 C    0.950    22 C    0.907
    25   8 O    2.027 --    24 C    1.813
    26   1 H    1.007 --     1 C    0.985
    27   1 H    1.003 --     1 C    0.979
    28   1 H    1.004 --     1 C    0.980
    29   1 H    1.000 --     4 C    0.983
    30   1 H    1.003 --     4 C    0.985
    31   1 H    1.007 --     4 C    0.982
    32   1 H    1.008 --    10 C    0.978
    33   1 H    1.001 --    10 C    0.985
    34   1 H    0.999 --    10 C    0.984
    35   1 H    0.998 --    11 C    0.982
    36   1 H    1.007 --    11 C    0.977
    37   1 H    1.000 --    11 C    0.985
    38   1 H    0.956 --    12 N    0.875
    39   1 H    0.998 --    19 C    0.982
    40   1 H    0.997 --    19 C    0.963
    41   1 H    0.997 --    19 C    0.964
    42   1 H    0.928 --    21 N    0.880
 ---------------------------------------------------------------------------

           -------------------------------------------------
          | TOTAL ENERGY              -83.004726586565 Eh   |
          | GRADIENT NORM               0.000762265682 Eh/α |
          | HOMO-LUMO GAP               2.408084357542 eV   |
           -------------------------------------------------

 * finished run on 2023/06/21 at 17:25:02.398
