   * xtb version 6.5.1 (579679a) compiled by 'ehlert@majestix' on 2022-07-11
          program call               : /lustre/hpc/kemi/ree/PhD/git/ReactivityQM/dep/xtb-6.5.1/bin/xtb --gfn 1 /lustre/hpc/kemi/ree/PhD/git/ReactivityQM/calculations/R01/reac01prodN08/conf11/R01_reac01prodN08_conf11_gfn1.xyz --opt --vfukui --chrg 1 --uhf 0 --alpb DMSO

   ID    Z sym.   atoms
    1    6 C      1, 2, 5, 6, 9, 10
    2    7 N      3, 4
    3    8 O      7, 8, 11
    4    1 H      12-20

      * Solvation model:               ALPB
        Solvent                        DMSO
        Solvent mass                       7.8130E+01 g/mol
          :  Hamiltonian                  GFN1-xTB          :
 * total energy  :   -37.5756731 Eh     change       -0.8249401E-11 Eh
 * total energy  :   -37.5834046 Eh     change       -0.7731474E-02 Eh
 * total energy  :   -37.5857242 Eh     change       -0.2319591E-02 Eh
 * total energy  :   -37.5861473 Eh     change       -0.4231184E-03 Eh
 * total energy  :   -37.5863762 Eh     change       -0.2288929E-03 Eh
 * total energy  :   -37.5865402 Eh     change       -0.1640234E-03 Eh
 * total energy  :   -37.5866849 Eh     change       -0.1447409E-03 Eh
 * total energy  :   -37.5868061 Eh     change       -0.1211143E-03 Eh
 * total energy  :   -37.5868941 Eh     change       -0.8800086E-04 Eh
 * total energy  :   -37.5869619 Eh     change       -0.6787201E-04 Eh
 * total energy  :   -37.5871496 Eh     change       -0.9284468E-05 Eh
 * total energy  :   -37.5871570 Eh     change       -0.7356458E-05 Eh
 * total energy  :   -37.5871632 Eh     change       -0.6259710E-05 Eh
 * total energy  :   -37.5871752 Eh     change       -0.1201689E-04 Eh
 * total energy  :   -37.5871821 Eh     change       -0.6825876E-05 Eh
 * total energy  :   -37.5871915 Eh     change       -0.9451238E-05 Eh
 * total energy  :   -37.5871974 Eh     change       -0.5876000E-05 Eh
 * total energy  :   -37.5872022 Eh     change       -0.4859479E-05 Eh
 * total energy  :   -37.5872051 Eh     change       -0.2826874E-05 Eh
   *** GEOMETRY OPTIMIZATION CONVERGED AFTER 26 ITERATIONS ***

 final structure:
================
20
 xtb: 6.5.1 (579679a)
C           -3.36971341510181        1.17711902153134       -0.02617041323558
C           -2.43858748409805        0.03898565573288       -0.11293575455922
N           -2.73305953984920       -1.23486417578699       -0.18119364595024
N           -1.57900566479707       -1.90440189236530       -0.24221858720623
C           -0.61638026976165       -1.01709810284900       -0.20937631817055
C            0.77919867765098       -1.37109928277393       -0.27720571254192
O            1.22703058837508       -2.46602333260129       -0.36579365032028
O            1.71220867362927       -0.26443422799293       -0.29200635780120
C            3.12779966533179       -0.63030757377350       -0.39778491647601
C            1.41070441147503        1.06462251134537        0.24669415700419
O           -1.11655473137752        0.23312109494909       -0.12754498986529
H           -3.25185109067832        1.81805718972104       -0.90070004599040
H           -3.13830301358235        1.77486723058781        0.85544681551346
H           -4.39366605597480        0.81439128869364        0.02879558649326
H            3.51332512256619       -0.83709335706528        0.59924597107375
H            3.17951245451640       -1.51060477979567       -1.03490315777741
H            3.63084341764085        0.21404135416216       -0.85938516684376
H            0.85677130070240        0.94826139688019        1.17470997410965
H            2.36517989888192        1.55070753962928        0.42545569229663
H            0.83454805445080        1.60175144177119       -0.50307847975293

          :  Hamiltonian                  GFN1-xTB          :
         :: total energy             -37.587205069923 Eh    ::
         :: gradient norm              0.000422286590 Eh/a0 ::
         :: HOMO-LUMO gap              2.956764998961 eV    ::
         :: SCC energy               -37.934166578910 Eh    ::
         :: -> Gsolv                  -0.094033200063 Eh    ::
         :: repulsion energy           0.355567948264 Eh    ::

    * Orbital Energies and Occupations

         #    Occupation            Energy/Eh            Energy/eV
      -------------------------------------------------------------
         1        2.0000           -0.9474828             -25.7823
       ...           ...                  ...                  ...
        18        2.0000           -0.6226848             -16.9441
        19        2.0000           -0.5921016             -16.1119
        20        2.0000           -0.5873040             -15.9814
        21        2.0000           -0.5773882             -15.7115
        22        2.0000           -0.5742056             -15.6249
        23        2.0000           -0.5692807             -15.4909
        24        2.0000           -0.5613111             -15.2741
        25        2.0000           -0.5529875             -15.0476
        26        2.0000           -0.5510945             -14.9960
        27        2.0000           -0.5475912             -14.9007
        28        2.0000           -0.5219744             -14.2036
        29        2.0000           -0.4969059             -13.5215
        30        2.0000           -0.4931001             -13.4179 (HOMO)
        31                         -0.3844409             -10.4612 (LUMO)
        32                         -0.2953633              -8.0372
        33                         -0.2602223              -7.0810
        34                         -0.1953460              -5.3156
        35                         -0.1734984              -4.7211
        36                         -0.1581357              -4.3031
        37                         -0.1392600              -3.7895
        38                         -0.1213388              -3.3018
        39                         -0.1103467              -3.0027
        40                         -0.1069528              -2.9103
        41                         -0.0921698              -2.5081
       ...                                ...                  ...
        62                          0.7213681              19.6294
      -------------------------------------------------------------
                  HL-Gap            0.1086591 Eh            2.9568 eV

Wiberg/Mayer (AO) data.
largest (>0.10) Wiberg bond orders for each atom

     #   Z sym  total        # sym  WBO       # sym  WBO       # sym  WBO
 ---------------------------------------------------------------------------
     1   6 C    3.976 --     2 C    1.043    14 H    0.979    13 H    0.953
                            12 H    0.950
     2   6 C    3.847 --     3 N    1.522    11 O    1.094     1 C    1.043
     3   7 N    2.994 --     2 C    1.522     4 N    1.287
     4   7 N    3.020 --     5 C    1.527     3 N    1.287
     5   6 C    3.887 --     4 N    1.527     6 C    1.082    11 O    1.044
     6   6 C    3.825 --     7 O    1.774     5 C    1.082     8 O    0.830
     7   8 O    2.058 --     6 C    1.774
     8   8 O    2.527 --     6 C    0.830     9 C    0.782    10 C    0.779
     9   6 C    3.755 --    15 H    0.978    17 H    0.977    16 H    0.969
                             8 O    0.782
    10   6 C    3.756 --    18 H    0.977    19 H    0.974    20 H    0.974
                             8 O    0.779
    11   8 O    2.341 --     2 C    1.094     5 C    1.044
    12   1 H    0.990 --     1 C    0.950
    13   1 H    0.990 --     1 C    0.953
    14   1 H    0.993 --     1 C    0.979
    15   1 H    0.989 --     9 C    0.978
    16   1 H    0.995 --     9 C    0.969
    17   1 H    0.992 --     9 C    0.977
    18   1 H    0.995 --    10 C    0.977
    19   1 H    0.990 --    10 C    0.974
    20   1 H    0.999 --    10 C    0.974
 ---------------------------------------------------------------------------

           -------------------------------------------------
          | TOTAL ENERGY              -37.587205069923 Eh   |
          | GRADIENT NORM               0.000422286590 Eh/α |
          | HOMO-LUMO GAP               2.956764998961 eV   |
           -------------------------------------------------

 * finished run on 2023/06/20 at 14:56:50.436
