   * xtb version 6.5.1 (579679a) compiled by 'ehlert@majestix' on 2022-07-11
          program call               : /lustre/hpc/kemi/ree/PhD/git/ReactivityQM/dep/xtb-6.5.1/bin/xtb --gfn 1 /lustre/hpc/kemi/ree/PhD/git/ReactivityQM/calculations/R01/reac01prodE05/conf04/R01_reac01prodE05_conf04_gfn1.xyz --opt --vfukui --chrg -1 --uhf 0 --alpb DMSO

   ID    Z sym.   atoms
    1    6 C      1, 3, 5, 8-10
    2    8 O      2, 4, 11
    3    7 N      6, 7
    4    1 H      12-20

      * Solvation model:               ALPB
        Solvent                        DMSO
        Solvent mass                       7.8130E+01 g/mol
          :  Hamiltonian                  GFN1-xTB          :
 * total energy  :   -38.2528697 Eh     change       -0.5215384E-11 Eh
 * total energy  :   -38.2704555 Eh     change       -0.1758580E-01 Eh
 * total energy  :   -38.2762823 Eh     change       -0.5826715E-02 Eh
 * total energy  :   -38.2769711 Eh     change       -0.6888793E-03 Eh
 * total energy  :   -38.2773538 Eh     change       -0.3826123E-03 Eh
 * total energy  :   -38.2774112 Eh     change       -0.5748823E-04 Eh
 * total energy  :   -38.2774466 Eh     change       -0.3538478E-04 Eh
 * total energy  :   -38.2774583 Eh     change       -0.1165521E-04 Eh
 * total energy  :   -38.2774681 Eh     change       -0.9814491E-05 Eh
 * total energy  :   -38.2774733 Eh     change       -0.5182837E-05 Eh
 * total energy  :   -38.2774771 Eh     change       -0.3801225E-05 Eh
   *** GEOMETRY OPTIMIZATION CONVERGED AFTER 11 ITERATIONS ***

 final structure:
================
20
 xtb: 6.5.1 (579679a)
C            4.14680286233476       -0.19508262177158       -0.29698269168326
O            2.77093272345670       -0.48180350367202       -0.26112174235519
C            1.94431933271515        0.67828245797299        0.04099111554742
O            2.52752032676863        1.79223821330813        0.25098239136757
C            0.62629707794982        0.36027249748078        0.05442554418235
N            0.00541781453833       -0.89848368350883       -0.19308914621693
N           -1.28587371224494       -0.62807635856163       -0.06492600154049
C           -2.23924492466301       -1.69415618308093       -0.25868587717092
C           -1.57166019543231        0.62587451793747        0.21179371122173
C           -2.90849277303847        1.22271191150432        0.46246613712108
O           -0.41856968841822        1.35728648622235        0.32809417073988
H            4.51288011650027        0.18870348980789        0.66737576540449
H            4.67271075365982       -1.12649066532264       -0.52500212459330
H            4.39269509283971        0.54694536837838       -1.07193828021566
H           -2.81559461638393       -1.51903563420516       -1.16715588866879
H           -2.91834393300451       -1.74435164335306        0.59128079523688
H           -1.68705706795547       -2.62712587156755       -0.34867396248756
H           -3.62024510966095        0.91979969038526       -0.30631080272933
H           -3.31323928242112        0.91471317604878        1.43069835104216
H           -2.82125279754037        2.30777835599725        0.45577853579818

          :  Hamiltonian                  GFN1-xTB          :
         :: total energy             -38.277477081692 Eh    ::
         :: gradient norm              0.000574612185 Eh/a0 ::
         :: HOMO-LUMO gap              0.964495813407 eV    ::
         :: SCC energy               -38.590889967429 Eh    ::
         :: -> Gsolv                  -0.121461477153 Eh    ::
         :: repulsion energy           0.321562922069 Eh    ::

    * Orbital Energies and Occupations

         #    Occupation            Energy/Eh            Energy/eV
      -------------------------------------------------------------
         1        2.0000           -0.8003972             -21.7799
       ...           ...                  ...                  ...
        19        2.0000           -0.5142233             -13.9927
        20        2.0000           -0.5092391             -13.8571
        21        2.0000           -0.5042148             -13.7204
        22        2.0000           -0.4877857             -13.2733
        23        2.0000           -0.4668012             -12.7023
        24        2.0000           -0.4597605             -12.5107
        25        2.0000           -0.4555249             -12.3955
        26        2.0000           -0.4387225             -11.9382
        27        2.0000           -0.4071760             -11.0798
        28        2.0000           -0.4025417             -10.9537
        29        2.0000           -0.3699660             -10.0673
        30        2.0000           -0.3650121              -9.9325
        31        2.0000           -0.2579202              -7.0184 (HOMO)
        32                         -0.2224756              -6.0539 (LUMO)
        33                         -0.1399720              -3.8088
        34                         -0.1243033              -3.3825
        35                         -0.0997725              -2.7149
        36                         -0.0993629              -2.7038
        37                         -0.0813592              -2.2139
        38                         -0.0702341              -1.9112
        39                         -0.0531316              -1.4458
        40                         -0.0483669              -1.3161
        41                         -0.0390239              -1.0619
        42                         -0.0355224              -0.9666
       ...                                ...                  ...
        62                          0.7116986              19.3663
      -------------------------------------------------------------
                  HL-Gap            0.0354446 Eh            0.9645 eV

Wiberg/Mayer (AO) data.
largest (>0.10) Wiberg bond orders for each atom

     #   Z sym  total        # sym  WBO       # sym  WBO       # sym  WBO
 ---------------------------------------------------------------------------
     1   6 C    3.932 --    13 H    0.986    14 H    0.979    12 H    0.979
                             2 O    0.970
     2   8 O    1.993 --     1 C    0.970     3 C    0.848
     3   6 C    3.876 --     5 C    1.543     4 O    1.318     2 O    0.848
     4   8 O    1.649 --     3 C    1.318     5 C    0.166
     5   6 C    3.708 --     3 C    1.543     6 N    1.057    11 O    0.838
                             4 O    0.166
     6   7 N    2.756 --     7 N    1.184     5 C    1.057     9 C    0.328
     7   7 N    3.635 --     9 C    1.375     6 N    1.184     8 C    0.952
     8   6 C    3.956 --    17 H    0.985    16 H    0.983    15 H    0.980
                             7 N    0.952
     9   6 C    3.867 --     7 N    1.375    11 O    1.030    10 C    1.024
                             6 N    0.328
    10   6 C    3.994 --     9 C    1.024    20 H    0.982    18 H    0.977
                            19 H    0.969
    11   8 O    2.087 --     9 C    1.030     5 C    0.838
    12   1 H    1.028 --     1 C    0.979
    13   1 H    1.023 --     1 C    0.986
    14   1 H    1.027 --     1 C    0.979
    15   1 H    1.003 --     8 C    0.980
    16   1 H    1.003 --     8 C    0.983
    17   1 H    1.014 --     8 C    0.985
    18   1 H    1.004 --    10 C    0.977
    19   1 H    1.004 --    10 C    0.969
    20   1 H    1.003 --    10 C    0.982
 ---------------------------------------------------------------------------

           -------------------------------------------------
          | TOTAL ENERGY              -38.277477081692 Eh   |
          | GRADIENT NORM               0.000574612185 Eh/α |
          | HOMO-LUMO GAP               0.964495813407 eV   |
           -------------------------------------------------

 * finished run on 2023/06/20 at 14:53:59.849
