   * xtb version 6.5.1 (579679a) compiled by 'ehlert@majestix' on 2022-07-11
          program call               : /lustre/hpc/kemi/ree/PhD/git/ReactivityQM/dep/xtb-6.5.1/bin/xtb --gfn 1 /lustre/hpc/kemi/ree/PhD/git/ReactivityQM/calculations/RaltegravirCLI/reac02prodN12/conf07/RaltegravirCLI_reac02prodN12_conf07_gfn1.xyz --opt --vfukui --chrg 1 --uhf 0 --alpb DMSO

   ID    Z sym.   atoms
    1    6 C      1, 3, 5, 6, 8, 9, 12-16, 18, 19, 21-24
    2    7 N      2, 11, 20, 25
    3    8 O      4, 7, 10
    4    9 F      17
    5    1 H      26-47

      * Solvation model:               ALPB
        Solvent                        DMSO
        Solvent mass                       7.8130E+01 g/mol
          :  Hamiltonian                  GFN1-xTB          :
 * total energy  :   -79.4652476 Eh     change       -0.7433698E-10 Eh
 * total energy  :   -79.4769793 Eh     change       -0.1173173E-01 Eh
 * total energy  :   -79.4821763 Eh     change       -0.5196933E-02 Eh
 * total energy  :   -79.4834324 Eh     change       -0.1256108E-02 Eh
 * total energy  :   -79.4844071 Eh     change       -0.9747305E-03 Eh
 * total energy  :   -79.4849984 Eh     change       -0.5912511E-03 Eh
 * total energy  :   -79.4855216 Eh     change       -0.5232136E-03 Eh
 * total energy  :   -79.4859700 Eh     change       -0.4484174E-03 Eh
 * total energy  :   -79.4862621 Eh     change       -0.2920969E-03 Eh
 * total energy  :   -79.4864095 Eh     change       -0.1473808E-03 Eh
 * total energy  :   -79.4918608 Eh     change       -0.9711183E-05 Eh
 * total energy  :   -79.4918850 Eh     change       -0.2415833E-04 Eh
 * total energy  :   -79.4919025 Eh     change       -0.1749622E-04 Eh
 * total energy  :   -79.4919203 Eh     change       -0.1789428E-04 Eh
 * total energy  :   -79.4919310 Eh     change       -0.1063011E-04 Eh
 * total energy  :   -79.4919433 Eh     change       -0.1237007E-04 Eh
 * total energy  :   -79.4919506 Eh     change       -0.7297495E-05 Eh
 * total energy  :   -79.4919572 Eh     change       -0.6525771E-05 Eh
 * total energy  :   -79.4919611 Eh     change       -0.3929021E-05 Eh
   *** GEOMETRY OPTIMIZATION CONVERGED AFTER 84 ITERATIONS ***

 final structure:
================
47
 xtb: 6.5.1 (579679a)
C           -4.36635403403157       -1.08359873847079       -0.18739698263824
N           -2.90995936352010       -1.13479610659119       -0.03247491922337
C           -2.43061639545262       -2.39022563805312        0.46472649540730
O           -3.19638108943794       -3.25895425664221        0.76056160050314
C           -0.92444537605684       -2.55333094599363        0.48354359877252
C           -0.52662447793947       -3.04188795107127       -0.94475025277939
O           -0.54402739769560       -3.47893625492289        1.44565257925379
C           -0.25771959388639       -1.23400962644471        0.67975731685608
C            1.16667878074928       -1.15175322795726        1.17504155864426
O            1.95056957348522       -2.07285580090543        1.04531268715287
N            1.44079608744679        0.02969699186963        1.74164383575426
C            2.77692262640984        0.32847867720463        2.25533071614281
C            3.66662026449262        0.81199457131088        1.13014369960139
C            4.44655013222814       -0.09715091491730        0.41914490385531
C            5.25657313049448        0.33460250407457       -0.62112677562088
C            5.26159464328265        1.68277099379807       -0.93291401180686
F            6.04365895689503        2.10789935092140       -1.93511857532936
C            4.48998214272732        2.60912687310001       -0.25422571121651
C            3.68631399582460        2.16089294753538        0.78460774752227
N           -0.82293947996310       -0.13974003162630        0.29029985662726
C           -2.10114650861431       -0.09400878207467       -0.17250983197402
C           -2.49958551655018        1.24669716551930       -0.73080604535823
C           -3.13880645456808        2.03977615612883        0.42627470361431
C           -1.25368488471410        1.99253513680747       -1.24104338255999
N           -3.46362123263755        1.09552437584457       -1.80108035379251
H           -4.70624611884274       -2.05914456706864       -0.53047653737717
H           -4.80742419954624       -0.86005448487830        0.78318120498422
H           -4.61801050390626       -0.30680862188261       -0.90659730527374
H           -1.05471070340326       -3.97056603780964       -1.14909943562639
H            0.54724823767134       -3.22040988166838       -0.94213080998726
H           -0.78263204344236       -2.29565955268281       -1.69145700938794
H           -1.17083373557138       -4.21579657751705        1.47423733750480
H            0.75431172994562        0.76436267353284        1.71285595442242
H            3.17763828474803       -0.58907239155043        2.69597014396013
H            2.66919660275013        1.09211626254750        3.02710124600191
H            4.41543651103948       -1.14931910238884        0.67798311338647
H            5.87012078939749       -0.35851813668340       -1.18216342472041
H            4.51471827983976        3.65389545014989       -0.53442312764468
H            3.07064587273805        2.86676133717669        1.32811462014256
H           -3.37383772191638        3.04109320373447        0.07038206704409
H           -4.05447656577215        1.55505976815577        0.75841039479063
H           -2.44439780910238        2.11126243427318        1.26103046904859
H           -1.56907920599519        2.93915969367105       -1.67513419471668
H           -0.75068434636624        1.40111590295835       -2.00384012690374
H           -0.56155852986450        2.18648772775501       -0.42425433490585
H           -3.85685456962676        1.99576189707151       -2.03481402753243
H           -3.01891678374860        0.70952453464732       -2.62148567460316

          :  Hamiltonian                  GFN1-xTB          :
         :: total energy             -79.491961097697 Eh    ::
         :: gradient norm              0.000995137820 Eh/a0 ::
         :: HOMO-LUMO gap              0.790621987993 eV    ::
         :: SCC energy               -80.385225963934 Eh    ::
         :: -> Gsolv                  -0.109832218014 Eh    ::
         :: repulsion energy           0.924474325229 Eh    ::

    * Orbital Energies and Occupations

         #    Occupation            Energy/Eh            Energy/eV
      -------------------------------------------------------------
         1        2.0000           -0.8864001             -24.1202
       ...           ...                  ...                  ...
        55        2.0000           -0.5235265             -14.2459
        56        2.0000           -0.5201456             -14.1539
        57        2.0000           -0.5182840             -14.1032
        58        2.0000           -0.5152986             -14.0220
        59        2.0000           -0.5121915             -13.9374
        60        2.0000           -0.5094704             -13.8634
        61        2.0000           -0.4935244             -13.4295
        62        2.0000           -0.4810713             -13.0906
        63        2.0000           -0.4754677             -12.9381
        64        2.0000           -0.4674608             -12.7203
        65        2.0000           -0.4591404             -12.4938
        66        2.0000           -0.4461729             -12.1410
        67        2.0000           -0.4428848             -12.0515 (HOMO)
        68        0.0000           -0.4138300             -11.2609 (LUMO)
        69                         -0.3420880              -9.3087
        70                         -0.2993012              -8.1444
        71                         -0.2810673              -7.6482
        72                         -0.2760644              -7.5121
        73                         -0.2484980              -6.7620
        74                         -0.1600209              -4.3544
        75                         -0.1545433              -4.2053
        76                         -0.1496026              -4.0709
        77                         -0.1471870              -4.0052
        78                         -0.1405967              -3.8258
       ...                                ...                  ...
       144                          0.6983409              19.0028
      -------------------------------------------------------------
                  HL-Gap            0.0290548 Eh            0.7906 eV

Wiberg/Mayer (AO) data.
largest (>0.10) Wiberg bond orders for each atom

     #   Z sym  total        # sym  WBO       # sym  WBO       # sym  WBO
 ---------------------------------------------------------------------------
     1   6 C    3.879 --    26 H    0.974    27 H    0.962    28 H    0.950
                             2 N    0.905
     2   7 N    3.564 --    21 C    1.405     3 C    0.990     1 C    0.905
     3   6 C    3.855 --     4 O    1.777     2 N    0.990     5 C    0.944
     4   8 O    2.035 --     3 C    1.777
     5   6 C    3.939 --     8 C    1.002     7 O    0.996     3 C    0.944
                             6 C    0.875
     6   6 C    3.966 --    31 H    0.986    29 H    0.975    30 H    0.974
                             5 C    0.875
     7   8 O    1.918 --     5 C    0.996    32 H    0.825
     8   6 C    3.898 --    20 N    1.620     5 C    1.002     9 C    0.958
     9   6 C    3.921 --    10 O    1.596    11 N    1.292     8 C    0.958
    10   8 O    1.929 --     9 C    1.596    11 N    0.199
    11   7 N    3.403 --     9 C    1.292    12 C    0.925    33 H    0.892
                            10 O    0.199
    12   6 C    3.928 --    13 C    0.987    35 H    0.974    34 H    0.970
                            11 N    0.925
    13   6 C    3.983 --    19 C    1.419    14 C    1.417    12 C    0.987
    14   6 C    3.992 --    15 C    1.445    13 C    1.417    36 H    0.969
                            18 C    0.110
    15   6 C    3.991 --    14 C    1.445    16 C    1.398    37 H    0.969
                            19 C    0.110
    16   6 C    3.860 --    18 C    1.399    15 C    1.398    17 F    0.931
    17   9 F    1.060 --    16 C    0.931
    18   6 C    3.990 --    19 C    1.444    16 C    1.399    38 H    0.968
                            14 C    0.110
    19   6 C    3.993 --    18 C    1.444    13 C    1.419    39 H    0.971
                            15 C    0.110
    20   7 N    3.072 --     8 C    1.620    21 C    1.208
    21   6 C    3.876 --     2 N    1.405    20 N    1.208    22 C    1.002
    22   6 C    3.957 --    21 C    1.002    25 N    0.996    24 C    0.971
                            23 C    0.940
    23   6 C    3.979 --    42 H    0.984    41 H    0.983    40 H    0.974
                            22 C    0.940
    24   6 C    3.986 --    44 H    0.984    45 H    0.982    43 H    0.981
                            22 C    0.971
    25   7 N    3.025 --    22 C    0.996    47 H    0.928    46 H    0.924
    26   1 H    0.997 --     1 C    0.974
    27   1 H    0.994 --     1 C    0.962
    28   1 H    1.017 --     1 C    0.950
    29   1 H    0.994 --     6 C    0.975
    30   1 H    1.003 --     6 C    0.974
    31   1 H    0.995 --     6 C    0.986
    32   1 H    0.846 --     7 O    0.825
    33   1 H    0.941 --    11 N    0.892
    34   1 H    1.002 --    12 C    0.970
    35   1 H    1.000 --    12 C    0.974
    36   1 H    1.007 --    14 C    0.969
    37   1 H    0.997 --    15 C    0.969
    38   1 H    0.997 --    18 C    0.968
    39   1 H    0.998 --    19 C    0.971
    40   1 H    0.993 --    23 C    0.974
    41   1 H    0.998 --    23 C    0.983
    42   1 H    0.998 --    23 C    0.984
    43   1 H    0.998 --    24 C    0.981
    44   1 H    0.999 --    24 C    0.984
    45   1 H    1.009 --    24 C    0.982
    46   1 H    0.939 --    25 N    0.924
    47   1 H    0.943 --    25 N    0.928
 ---------------------------------------------------------------------------

           -------------------------------------------------
          | TOTAL ENERGY              -79.491961097697 Eh   |
          | GRADIENT NORM               0.000995137820 Eh/α |
          | HOMO-LUMO GAP               0.790621987993 eV   |
           -------------------------------------------------

 * finished run on 2023/06/20 at 15:33:16.930
