   * xtb version 6.5.1 (579679a) compiled by 'ehlert@majestix' on 2022-07-11
          program call               : /lustre/hpc/kemi/ree/PhD/git/ReactivityQM/dep/xtb-6.5.1/bin/xtb --gfn 1 /lustre/hpc/kemi/ree/PhD/git/ReactivityQM/calculations/R02/reac01prodN17/conf03/R02_reac01prodN17_conf03_gfn1.xyz --opt --vfukui --chrg 1 --uhf 0 --alpb DMSO

   ID    Z sym.   atoms
    1    6 C      1, 3, 5, 7-10, 12, 13, 15, 18, 19, 22, 24
    2    8 O      2, 4, 14, 20, 23, 25
    3    7 N      6, 11, 16, 17, 21
    4    1 H      26-43

      * Solvation model:               ALPB
        Solvent                        DMSO
        Solvent mass                       7.8130E+01 g/mol
          :  Hamiltonian                  GFN1-xTB          :
 * total energy  :   -83.1273620 Eh     change       -0.2678746E-10 Eh
 * total energy  :   -83.1406883 Eh     change       -0.1332625E-01 Eh
 * total energy  :   -83.1458629 Eh     change       -0.5174692E-02 Eh
 * total energy  :   -83.1455606 Eh     change        0.3023316E-03 Eh
 * total energy  :   -83.1469228 Eh     change       -0.1362152E-02 Eh
 * total energy  :   -83.1474198 Eh     change       -0.4970346E-03 Eh
 * total energy  :   -83.1477203 Eh     change       -0.3005331E-03 Eh
 * total energy  :   -83.1479846 Eh     change       -0.2643090E-03 Eh
 * total energy  :   -83.1482790 Eh     change       -0.2943249E-03 Eh
 * total energy  :   -83.1486026 Eh     change       -0.3235856E-03 Eh
 * total energy  :   -83.1530123 Eh     change       -0.5869666E-05 Eh
 * total energy  :   -83.1530214 Eh     change       -0.9154732E-05 Eh
 * total energy  :   -83.1530294 Eh     change       -0.7956106E-05 Eh
 * total energy  :   -83.1530369 Eh     change       -0.7564662E-05 Eh
 * total energy  :   -83.1530465 Eh     change       -0.9612716E-05 Eh
 * total energy  :   -83.1530551 Eh     change       -0.8523137E-05 Eh
 * total energy  :   -83.1530592 Eh     change       -0.4107961E-05 Eh
 * total energy  :   -83.1530615 Eh     change       -0.2344815E-05 Eh
 * total energy  :   -83.1530658 Eh     change       -0.4328599E-05 Eh
   *** GEOMETRY OPTIMIZATION CONVERGED AFTER 106 ITERATIONS ***

 final structure:
================
43
 xtb: 6.5.1 (579679a)
C           -2.05770182597830        3.74472055264268        1.01071026731101
O           -1.94869363758513        2.35080381022695        0.69518941177289
C           -3.06134074457685        1.75390881293962        0.26443916009696
O           -4.11391159279601        2.32683482887220        0.12496851710103
C           -2.83758296826949        0.30315463852565       -0.00740200821183
N           -1.54076688985512       -0.13743624972467        0.13068015393278
C           -1.25552520965979       -1.38086282132412       -0.05295474852164
C            0.19938638979264       -1.79102667456092        0.04391169163478
C            0.42145290198035       -3.14212205085313        0.71061467467083
C            0.80129492567814       -1.75689510838297       -1.36523370762700
N            0.83419324188118       -0.67270823861839        0.85153668876789
C            0.53924414330975       -0.71991217003067        2.30770440762293
C            2.32601159726040       -0.59611871837814        0.66765915365846
O            3.02826627581225       -1.41998772880414        1.16011256225842
C            2.66285379890299        0.56765081848365       -0.11060680755117
N            1.80307324854977        1.41475137105839       -0.62404990370804
N            2.50998934441000        2.33886234084886       -1.28167774072571
C            3.77779949171422        2.02129594523932       -1.14282159873533
C            4.94839110341057        2.74138254177710       -1.67502115496517
O            3.92476252372287        0.91561319458126       -0.41656053039872
N           -2.18464729065092       -2.30752158932272       -0.40474567209811
C           -3.51773276681952       -1.98800102874323       -0.58068607514834
O           -4.35317439666273       -2.81583804973470       -0.89138719650463
C           -3.82780614104119       -0.57327293829830       -0.35946744228150
O           -5.10377268231285       -0.22961445355487       -0.51497912937677
H           -2.82521985353351        3.89615024305207        1.77353997866594
H           -1.08440665796249        4.05242001132352        1.38612494307129
H           -2.31686901554314        4.31248433941598        0.11362579045792
H            0.12941134110028       -3.92910257940084        0.01782796908463
H            1.47564737874643       -3.27140808114546        0.94960708661207
H           -0.17053319432077       -3.23775006101745        1.61811017312865
H            0.24283942021535       -2.44176365833301       -2.00124335223894
H            1.84343167764424       -2.07021223119940       -1.34427126364429
H            0.73122341033954       -0.75243228660755       -1.78046609976257
H            0.39707890865098        0.19296548187620        0.47973833689843
H           -0.53482309595334       -0.82693054566914        2.42819321754201
H            0.87915683696769        0.21891807026883        2.73823772499982
H            1.07339481186094       -1.55469464604654        2.75120404658034
H            5.50706503869189        3.18764048049106       -0.85075570135483
H            4.62419973517270        3.52254301062013       -2.35813638541559
H            5.61097640217917        2.04400594877032       -2.18720770869648
H           -1.92912108472543       -3.27355234094959       -0.54078137516261
H           -5.62751289974328       -1.01694319033083       -0.75203335374707

          :  Hamiltonian                  GFN1-xTB          :
         :: total energy             -83.153065846458 Eh    ::
         :: gradient norm              0.000443352522 Eh/a0 ::
         :: HOMO-LUMO gap              1.737150760299 eV    ::
         :: SCC energy               -83.949078295982 Eh    ::
         :: -> Gsolv                  -0.118086897233 Eh    ::
         :: repulsion energy           0.824768334930 Eh    ::

    * Orbital Energies and Occupations

         #    Occupation            Energy/Eh            Energy/eV
      -------------------------------------------------------------
         1        2.0000           -0.9067849             -24.6749
       ...           ...                  ...                  ...
        55        2.0000           -0.5423562             -14.7583
        56        2.0000           -0.5347477             -14.5512
        57        2.0000           -0.5272783             -14.3480
        58        2.0000           -0.5237326             -14.2515
        59        2.0000           -0.5216144             -14.1938
        60        2.0000           -0.5112733             -13.9125
        61        2.0000           -0.5046534             -13.7323
        62        2.0000           -0.5003711             -13.6158
        63        2.0000           -0.4959565             -13.4957
        64        2.0000           -0.4939322             -13.4406
        65        2.0000           -0.4853938             -13.2082
        66        2.0000           -0.4705132             -12.8033
        67        2.0000           -0.4512988             -12.2805 (HOMO)
        68                         -0.3874597             -10.5433 (LUMO)
        69                         -0.3409004              -9.2764
        70                         -0.3105673              -8.4510
        71                         -0.2953203              -8.0361
        72                         -0.2621816              -7.1343
        73                         -0.2554459              -6.9510
        74                         -0.1771172              -4.8196
        75                         -0.1735625              -4.7229
        76                         -0.1632057              -4.4411
        77                         -0.1581564              -4.3037
        78                         -0.1482266              -4.0335
       ...                                ...                  ...
       136                          0.7367294              20.0474
      -------------------------------------------------------------
                  HL-Gap            0.0638391 Eh            1.7372 eV

Wiberg/Mayer (AO) data.
largest (>0.10) Wiberg bond orders for each atom

     #   Z sym  total        # sym  WBO       # sym  WBO       # sym  WBO
 ---------------------------------------------------------------------------
     1   6 C    3.866 --    27 H    0.986    28 H    0.979    26 H    0.979
                             2 O    0.892
     2   8 O    2.196 --     3 C    1.111     1 C    0.892     4 O    0.136
     3   6 C    3.856 --     4 O    1.670     2 O    1.111     5 C    0.996
     4   8 O    1.936 --     3 C    1.670     2 O    0.136
     5   6 C    3.956 --    24 C    1.504     6 N    1.161     3 C    0.996
     6   7 N    3.064 --     7 C    1.584     5 C    1.161
     7   6 C    3.943 --     6 N    1.584    21 N    1.186     8 C    0.980
     8   6 C    3.892 --     9 C    1.000    10 C    0.982     7 C    0.980
                            11 N    0.856
     9   6 C    3.979 --     8 C    1.000    31 H    0.981    30 H    0.974
                            29 H    0.974
    10   6 C    3.980 --     8 C    0.982    34 H    0.981    32 H    0.977
                            33 H    0.977
    11   7 N    3.597 --    12 C    0.897    13 C    0.860     8 C    0.856
                            35 H    0.850
    12   6 C    3.883 --    37 H    0.981    38 H    0.980    36 H    0.979
                            11 N    0.897
    13   6 C    3.881 --    14 O    1.793    15 C    1.085    11 N    0.860
    14   8 O    2.069 --    13 C    1.793
    15   6 C    3.890 --    16 N    1.510    13 C    1.085    20 O    1.059
    16   7 N    3.050 --    15 C    1.510    17 N    1.290
    17   7 N    2.991 --    18 C    1.507    16 N    1.290
    18   6 C    3.850 --    17 N    1.507    20 O    1.116    19 C    1.042
    19   6 C    3.976 --    18 C    1.042    40 H    0.979    41 H    0.957
                            39 H    0.947
    20   8 O    2.360 --    18 C    1.116    15 C    1.059
    21   7 N    3.467 --     7 C    1.186    22 C    1.115    42 H    0.875
                            23 O    0.131
    22   6 C    3.905 --    23 O    1.607    21 N    1.115    24 C    1.052
    23   8 O    1.929 --    22 C    1.607    21 N    0.131
    24   6 C    3.921 --     5 C    1.504    25 O    1.128    22 C    1.052
    25   8 O    2.106 --    24 C    1.128    43 H    0.801
    26   1 H    1.006 --     1 C    0.979
    27   1 H    1.010 --     1 C    0.986
    28   1 H    1.006 --     1 C    0.979
    29   1 H    0.993 --     9 C    0.974
    30   1 H    0.998 --     9 C    0.974
    31   1 H    0.995 --     9 C    0.981
    32   1 H    0.994 --    10 C    0.977
    33   1 H    0.993 --    10 C    0.977
    34   1 H    1.001 --    10 C    0.981
    35   1 H    0.974 --    11 N    0.850
    36   1 H    0.997 --    12 C    0.979
    37   1 H    0.989 --    12 C    0.981
    38   1 H    0.995 --    12 C    0.980
    39   1 H    0.990 --    19 C    0.947
    40   1 H    0.994 --    19 C    0.979
    41   1 H    0.990 --    19 C    0.957
    42   1 H    0.916 --    21 N    0.875
    43   1 H    0.837 --    25 O    0.801
 ---------------------------------------------------------------------------

           -------------------------------------------------
          | TOTAL ENERGY              -83.153065846458 Eh   |
          | GRADIENT NORM               0.000443352522 Eh/α |
          | HOMO-LUMO GAP               1.737150760299 eV   |
           -------------------------------------------------

 * finished run on 2023/06/20 at 15:43:22.724
