   * xtb version 6.5.1 (579679a) compiled by 'ehlert@majestix' on 2022-07-11
          program call               : /lustre/hpc/kemi/ree/PhD/git/ReactivityQM/dep/xtb-6.5.1/bin/xtb --gfn 1 /lustre/hpc/kemi/ree/PhD/git/ReactivityQM/calculations/R03/reac01prodE02/conf06/R03_reac01prodE02_conf06_gfn1.xyz --opt --vfukui --chrg -1 --uhf 0 --alpb DMSO

   ID    Z sym.   atoms
    1    6 C      1-4, 6-9
    2    9 F      5
    3    7 N      10
    4    1 H      11-21

      * Solvation model:               ALPB
        Solvent                        DMSO
        Solvent mass                       7.8130E+01 g/mol
          :  Hamiltonian                  GFN1-xTB          :
 * total energy  :   -31.4570615 Eh     change       -0.4355627E-11 Eh
 * total energy  :   -31.4621880 Eh     change       -0.5126525E-02 Eh
 * total energy  :   -31.4631565 Eh     change       -0.9684938E-03 Eh
 * total energy  :   -31.4632805 Eh     change       -0.1239488E-03 Eh
 * total energy  :   -31.4633909 Eh     change       -0.1104258E-03 Eh
 * total energy  :   -31.4634823 Eh     change       -0.9137383E-04 Eh
 * total energy  :   -31.4635797 Eh     change       -0.9737657E-04 Eh
 * total energy  :   -31.4636784 Eh     change       -0.9872148E-04 Eh
 * total energy  :   -31.4637394 Eh     change       -0.6105922E-04 Eh
 * total energy  :   -31.4637656 Eh     change       -0.2615641E-04 Eh
 * total energy  :   -31.4637835 Eh     change       -0.1786184E-04 Eh
 * total energy  :   -31.4637940 Eh     change       -0.1055502E-04 Eh
 * total energy  :   -31.4638018 Eh     change       -0.7764843E-05 Eh
 * total energy  :   -31.4638065 Eh     change       -0.4745588E-05 Eh
   *** GEOMETRY OPTIMIZATION CONVERGED AFTER 14 ITERATIONS ***

 final structure:
================
21
 xtb: 6.5.1 (579679a)
C           -0.79994852539243       -2.04015570512308       -0.23212925867408
C           -0.43356959443961       -0.74950132900819        0.57055009281841
C           -1.68610999077936        0.01953672367911        0.93843455503178
C           -2.02681810967572        1.12819574243991        0.23449350707077
F           -3.23472398677414        1.72038909403410        0.53557379843760
C           -1.23383289864322        1.77128757762885       -0.72130067764245
C            0.07772638668741        1.26076979622669       -0.86371629824298
C            0.51404543827785        0.13034513901225       -0.23382408799360
C            1.96620566729746       -0.28766198902069       -0.31032137884344
N            2.85247215909762        0.56488699284732        0.51645794863554
H            0.09568347619957       -2.62464989718282       -0.44900685409970
H           -1.48990011671845       -2.65820343987627        0.34496758411207
H           -1.27787890192935       -1.77116180596333       -1.17536872760542
H            0.06883934503510       -1.10168566261372        1.49239975253789
H           -2.32721295401940       -0.37763982411348        1.71732831252830
H           -1.56321436966060        2.67044347001731       -1.22320790812825
H            0.78048192746093        1.82234274602680       -1.48086388936202
H            2.34325541734479       -0.23413992189370       -1.34233428333396
H            2.09593485253985       -1.32282773448870        0.03284798777893
H            2.77505276672337        1.51840584012089        0.18092277081514
H            2.50351101136844        0.56102318725072        1.46809705415953

          :  Hamiltonian                  GFN1-xTB          :
         :: total energy             -31.463806531039 Eh    ::
         :: gradient norm              0.000634423368 Eh/a0 ::
         :: HOMO-LUMO gap              2.674167926500 eV    ::
         :: SCC energy               -31.834989905901 Eh    ::
         :: -> Gsolv                  -0.076395795752 Eh    ::
         :: repulsion energy           0.381501965344 Eh    ::

    * Orbital Energies and Occupations

         #    Occupation            Energy/Eh            Energy/eV
      -------------------------------------------------------------
         1        2.0000           -0.7879261             -21.4406
       ...           ...                  ...                  ...
        16        2.0000           -0.4815633             -13.1040
        17        2.0000           -0.4771083             -12.9828
        18        2.0000           -0.4672656             -12.7149
        19        2.0000           -0.4611550             -12.5487
        20        2.0000           -0.4533528             -12.3364
        21        2.0000           -0.4452983             -12.1172
        22        2.0000           -0.4318945             -11.7524
        23        2.0000           -0.4222580             -11.4902
        24        2.0000           -0.4027292             -10.9588
        25        2.0000           -0.3995213             -10.8715
        26        2.0000           -0.3710945             -10.0980
        27        2.0000           -0.3581939              -9.7470
        28        2.0000           -0.2764710              -7.5232 (HOMO)
        29                         -0.1781972              -4.8490 (LUMO)
        30                         -0.1080616              -2.9405
        31                         -0.0846572              -2.3036
        32                         -0.0757535              -2.0614
        33                         -0.0701089              -1.9078
        34                         -0.0639911              -1.7413
        35                         -0.0454169              -1.2359
        36                         -0.0373528              -1.0164
        37                         -0.0254569              -0.6927
        38                         -0.0196893              -0.5358
        39                         -0.0187635              -0.5106
       ...                                ...                  ...
        62                          0.6592851              17.9401
      -------------------------------------------------------------
                  HL-Gap            0.0982739 Eh            2.6742 eV

Wiberg/Mayer (AO) data.
largest (>0.10) Wiberg bond orders for each atom

     #   Z sym  total        # sym  WBO       # sym  WBO       # sym  WBO
 ---------------------------------------------------------------------------
     1   6 C    3.991 --    13 H    0.989    12 H    0.988    11 H    0.986
                             2 C    0.965
     2   6 C    3.992 --     3 C    1.006     8 C    0.997    14 H    0.971
                             1 C    0.965
     3   6 C    3.901 --     4 C    1.584     2 C    1.006    15 H    0.975
                             6 C    0.108
     4   6 C    3.824 --     3 C    1.584     6 C    1.301     5 F    0.852
     5   9 F    0.959 --     4 C    0.852
     6   6 C    3.875 --     4 C    1.301     7 C    1.290    16 H    0.977
                             3 C    0.108     8 C    0.105
     7   6 C    3.994 --     8 C    1.617     6 C    1.290    17 H    0.972
     8   6 C    3.931 --     7 C    1.617     9 C    1.002     2 C    0.997
                             6 C    0.105
     9   6 C    3.968 --     8 C    1.002    19 H    0.982    18 H    0.979
                            10 N    0.966
    10   7 N    2.944 --     9 C    0.966    21 H    0.958    20 H    0.957
    11   1 H    1.014 --     1 C    0.986
    12   1 H    1.016 --     1 C    0.988
    13   1 H    1.022 --     1 C    0.989
    14   1 H    1.020 --     2 C    0.971
    15   1 H    1.004 --     3 C    0.975
    16   1 H    1.005 --     6 C    0.977
    17   1 H    1.006 --     7 C    0.972
    18   1 H    1.018 --     9 C    0.979
    19   1 H    1.018 --     9 C    0.982
    20   1 H    0.982 --    10 N    0.957
    21   1 H    0.979 --    10 N    0.958
 ---------------------------------------------------------------------------

           -------------------------------------------------
          | TOTAL ENERGY              -31.463806531039 Eh   |
          | GRADIENT NORM               0.000634423368 Eh/α |
          | HOMO-LUMO GAP               2.674167926500 eV   |
           -------------------------------------------------

 * finished run on 2023/06/20 at 15:12:59.612
