   * xtb version 6.5.1 (579679a) compiled by 'ehlert@majestix' on 2022-07-11
          program call               : /lustre/hpc/kemi/ree/PhD/git/ReactivityQM/dep/xtb-6.5.1/bin/xtb --gfn 1 /lustre/hpc/kemi/ree/PhD/git/ReactivityQM/calculations/R02oxygendeprot/reac01prodE06/conf14/R02oxygendeprot_reac01prodE06_conf14_gfn1.xyz --opt --vfukui --chrg -2 --uhf 0 --alpb DMSO

   ID    Z sym.   atoms
    1    6 C      1, 3, 5, 6, 8, 11-15, 17, 19, 22, 23
    2    8 O      2, 4, 7, 9, 18, 24
    3    7 N      10, 16, 20, 21, 25
    4    1 H      26-42

      * Solvation model:               ALPB
        Solvent                        DMSO
        Solvent mass                       7.8130E+01 g/mol
          :  Hamiltonian                  GFN1-xTB          :
 * total energy  :   -83.6054835 Eh     change       -0.1272298E-08 Eh
 * total energy  :   -83.6167513 Eh     change       -0.1126779E-01 Eh
 * total energy  :   -83.6204842 Eh     change       -0.3732851E-02 Eh
 * total energy  :   -83.6212071 Eh     change       -0.7228971E-03 Eh
 * total energy  :   -83.6217864 Eh     change       -0.5793150E-03 Eh
 * total energy  :   -83.6221911 Eh     change       -0.4047343E-03 Eh
 * total energy  :   -83.6225593 Eh     change       -0.3681763E-03 Eh
 * total energy  :   -83.6228618 Eh     change       -0.3024543E-03 Eh
 * total energy  :   -83.6230979 Eh     change       -0.2361822E-03 Eh
 * total energy  :   -83.6232837 Eh     change       -0.1858015E-03 Eh
 * total energy  :   -83.6238217 Eh     change       -0.3035430E-04 Eh
 * total energy  :   -83.6238385 Eh     change       -0.1678452E-04 Eh
 * total energy  :   -83.6238507 Eh     change       -0.1213161E-04 Eh
 * total energy  :   -83.6238584 Eh     change       -0.7710075E-05 Eh
 * total energy  :   -83.6238641 Eh     change       -0.5733000E-05 Eh
 * total energy  :   -83.6238713 Eh     change       -0.7218620E-05 Eh
 * total energy  :   -83.6238779 Eh     change       -0.6619110E-05 Eh
 * total energy  :   -83.6238838 Eh     change       -0.5878091E-05 Eh
 * total energy  :   -83.6238878 Eh     change       -0.3933990E-05 Eh
   *** GEOMETRY OPTIMIZATION CONVERGED AFTER 26 ITERATIONS ***

 final structure:
================
42
 xtb: 6.5.1 (579679a)
C           -3.92864654613235        3.52622771239977       -0.97428671532646
O           -3.79451788798200        2.21261785780209       -0.46645122271577
C           -2.51131542479810        1.73162527077519       -0.40240953865179
O           -1.58217244743570        2.45018890564061       -0.77828598713125
C           -2.37378304993381        0.36961104378256        0.09602063924692
C           -3.50054075372166       -0.43615709120919        0.43936330789721
O           -4.70648718801505       -0.03973165295137        0.51146010721798
C           -3.20332637809065       -1.87638474076785        0.68061855597008
O           -4.06586958119458       -2.74917583287140        0.86993040884771
N           -1.88645303436721       -2.26210576611715        0.57985307611769
C           -0.78300976378007       -1.31959299807971        0.70610750579477
C           -0.43598800712871       -1.15857918640849        2.21312885404857
C            0.44963362831075       -1.88104601929338       -0.08997744424906
C            1.03377534697112       -3.15380059527544        0.53354974387308
C            0.01656518830479       -2.14830399621361       -1.54025850635072
N            1.43950785994806       -0.80814393864118       -0.05961461029554
C            2.68430532752256       -0.89396764779184       -0.60364411353751
O            3.15963304815535       -1.92752884725373       -1.10999462334111
C            3.45621493169466        0.33382478580957       -0.50100568722146
N            4.67188367743367        0.55898139739986       -0.97185130236570
N            4.99298651049931        1.84245186949834       -0.62522041394834
C            3.98386487592281        2.32755819776565        0.02368265958473
C            3.86829604992010        3.68306208385641        0.61412379116985
O            2.96946140800774        1.44356771420373        0.14389415594811
N           -1.07429919163008       -0.03958970817121        0.14237489774015
H           -3.55181452052049        3.59323547898859       -2.00147939245487
H           -4.99059146028581        3.77320748019602       -0.96087791852852
H           -3.37970313043329        4.24633366619168       -0.35685288685150
H           -1.70296035448590       -3.19796790987206        0.90617567420177
H           -0.32303706484621       -2.12903902760486        2.69204895704259
H            0.48778867766328       -0.59339054452612        2.32125214649518
H           -1.23970975524257       -0.61543556033749        2.70874120927337
H            1.76885804126582       -3.60235388013672       -0.13389885148705
H            1.52352572437534       -2.92952089655853        1.47997783162959
H            0.24640699399057       -3.88484991758677        0.71023100075868
H            0.86895865886341       -2.46197947108914       -2.14130282025516
H           -0.73760424512731       -2.93465383720055       -1.56078101962864
H           -0.40979085507829       -1.23920456152511       -1.96766924190725
H            1.04524926283902        0.11633065284818        0.10413196960026
H            3.09171835193383        4.25761076075932        0.10812806634366
H            3.60517272842934        3.61345016865433        1.66928015005538
H            4.81781134817813        4.20261858093821        0.51256258740842

          :  Hamiltonian                  GFN1-xTB          :
         :: total energy             -83.623887751441 Eh    ::
         :: gradient norm              0.000486601384 Eh/a0 ::
         :: HOMO-LUMO gap              0.091374394934 eV    ::
         :: SCC energy               -84.345480378671 Eh    ::
         :: -> Gsolv                  -0.268462071241 Eh    ::
         :: repulsion energy           0.748808186522 Eh    ::

    * Orbital Energies and Occupations

         #    Occupation            Energy/Eh            Energy/eV
      -------------------------------------------------------------
         1        2.0000           -0.8178649             -22.2552
       ...           ...                  ...                  ...
        56        2.0000           -0.4407855             -11.9944
        57        2.0000           -0.4375839             -11.9073
        58        2.0000           -0.4195919             -11.4177
        59        2.0000           -0.4158421             -11.3156
        60        2.0000           -0.4131972             -11.2437
        61        2.0000           -0.4073151             -11.0836
        62        2.0000           -0.4015564             -10.9269
        63        2.0000           -0.3963600             -10.7855
        64        2.0000           -0.3901722             -10.6171
        65        2.0000           -0.3781818             -10.2909
        66        2.0000           -0.3657274              -9.9520
        67        2.0000           -0.3342959              -9.0967
        68        1.7082           -0.2743420              -7.4652 (HOMO)
        69        0.2918           -0.2709840              -7.3739 (LUMO)
        70                         -0.2364386              -6.4338
        71                         -0.2213646              -6.0236
        72                         -0.1634392              -4.4474
        73                         -0.1512697              -4.1163
        74                         -0.1279701              -3.4822
        75                         -0.1109643              -3.0195
        76                         -0.1047622              -2.8507
        77                         -0.0958348              -2.6078
        78                         -0.0847341              -2.3057
        79                         -0.0802192              -2.1829
       ...                                ...                  ...
       134                          0.7380509              20.0834
      -------------------------------------------------------------
                  HL-Gap            0.0033579 Eh            0.0914 eV

Wiberg/Mayer (AO) data.
largest (>0.10) Wiberg bond orders for each atom

     #   Z sym  total        # sym  WBO       # sym  WBO       # sym  WBO
 ---------------------------------------------------------------------------
     1   6 C    3.912 --    27 H    0.987    26 H    0.980    28 H    0.980
                             2 O    0.940
     2   8 O    2.135 --     3 C    1.014     1 C    0.940     4 O    0.101
     3   6 C    3.815 --     4 O    1.548     5 C    1.115     2 O    1.014
     4   8 O    1.817 --     3 C    1.548     2 O    0.101
     5   6 C    3.911 --    25 N    1.271     6 C    1.234     3 C    1.115
     6   6 C    3.873 --     7 O    1.407     5 C    1.234     8 C    1.013
     7   8 O    1.653 --     6 C    1.407
     8   6 C    3.860 --     9 O    1.524    10 N    1.156     6 C    1.013
     9   8 O    1.789 --     8 C    1.524    10 N    0.127
    10   7 N    3.251 --     8 C    1.156    11 C    0.929    29 H    0.917
                             9 O    0.127
    11   6 C    3.941 --    25 N    1.029    12 C    0.961    13 C    0.941
                            10 N    0.929
    12   6 C    3.977 --    30 H    0.986    32 H    0.985    31 H    0.985
                            11 C    0.961
    13   6 C    3.933 --    14 C    0.999    15 C    0.990    11 C    0.941
                            16 N    0.938
    14   6 C    3.994 --    13 C    0.999    34 H    0.985    35 H    0.983
                            33 H    0.980
    15   6 C    3.992 --    13 C    0.990    36 H    0.985    37 H    0.985
                            38 H    0.982
    16   7 N    3.280 --    17 C    1.203    13 C    0.938    39 H    0.889
                            18 O    0.145
    17   6 C    3.833 --    18 O    1.466    16 N    1.203    19 C    1.077
    18   8 O    1.746 --    17 C    1.466    16 N    0.145
    19   6 C    3.741 --    20 N    1.479    17 C    1.077    24 O    0.996
    20   7 N    2.810 --    19 C    1.479    21 N    1.188
    21   7 N    2.979 --    22 C    1.625    20 N    1.188
    22   6 C    3.832 --    21 N    1.625    24 O    1.056    23 C    1.026
    23   6 C    3.993 --    22 C    1.026    42 H    0.985    41 H    0.971
                            40 H    0.967
    24   8 O    2.229 --    22 C    1.056    19 C    0.996
    25   7 N    2.682 --     5 C    1.271    11 C    1.029
    26   1 H    1.018 --     1 C    0.980
    27   1 H    1.018 --     1 C    0.987
    28   1 H    1.018 --     1 C    0.980
    29   1 H    0.970 --    10 N    0.917
    30   1 H    1.007 --    12 C    0.986
    31   1 H    1.014 --    12 C    0.985
    32   1 H    1.011 --    12 C    0.985
    33   1 H    1.021 --    14 C    0.980
    34   1 H    1.008 --    14 C    0.985
    35   1 H    1.005 --    14 C    0.983
    36   1 H    1.014 --    15 C    0.985
    37   1 H    1.014 --    15 C    0.985
    38   1 H    1.023 --    15 C    0.982
    39   1 H    0.988 --    16 N    0.889
    40   1 H    0.999 --    23 C    0.967
    41   1 H    1.000 --    23 C    0.971
    42   1 H    1.003 --    23 C    0.985
 ---------------------------------------------------------------------------

           -------------------------------------------------
          | TOTAL ENERGY              -83.623887751441 Eh   |
          | GRADIENT NORM               0.000486601384 Eh/α |
          | HOMO-LUMO GAP               0.091374394934 eV   |
           -------------------------------------------------

 * finished run on 2023/06/21 at 17:07:54.309
