   * xtb version 6.5.1 (579679a) compiled by 'ehlert@majestix' on 2022-07-11
          program call               : /lustre/hpc/kemi/ree/PhD/git/ReactivityQM/dep/xtb-6.5.1/bin/xtb --gfn 1 /lustre/hpc/kemi/ree/PhD/git/ReactivityQM/calculations/R02oxygendeprot/reac01prodE10/conf18/R02oxygendeprot_reac01prodE10_conf18_gfn1.xyz --opt --vfukui --chrg -2 --uhf 0 --alpb DMSO

   ID    Z sym.   atoms
    1    6 C      1, 3, 5, 7-10, 12, 14, 17-19, 22, 24
    2    8 O      2, 4, 13, 20, 23, 25
    3    7 N      6, 11, 15, 16, 21
    4    1 H      26-42

      * Solvation model:               ALPB
        Solvent                        DMSO
        Solvent mass                       7.8130E+01 g/mol
          :  Hamiltonian                  GFN1-xTB          :
 * total energy  :   -83.5626811 Eh     change       -0.5196910E-10 Eh
 * total energy  :   -83.5782191 Eh     change       -0.1553797E-01 Eh
 * total energy  :   -83.5842714 Eh     change       -0.6052272E-02 Eh
 * total energy  :   -83.5852589 Eh     change       -0.9875039E-03 Eh
 * total energy  :   -83.5861065 Eh     change       -0.8476201E-03 Eh
 * total energy  :   -83.5864322 Eh     change       -0.3256799E-03 Eh
 * total energy  :   -83.5868407 Eh     change       -0.4085337E-03 Eh
 * total energy  :   -83.5870140 Eh     change       -0.1733550E-03 Eh
 * total energy  :   -83.5871075 Eh     change       -0.9344362E-04 Eh
 * total energy  :   -83.5871534 Eh     change       -0.4594908E-04 Eh
 * total energy  :   -83.5874357 Eh     change       -0.3297854E-04 Eh
 * total energy  :   -83.5874730 Eh     change       -0.3733439E-04 Eh
 * total energy  :   -83.5874861 Eh     change       -0.1311774E-04 Eh
 * total energy  :   -83.5875019 Eh     change       -0.1576751E-04 Eh
 * total energy  :   -83.5875079 Eh     change       -0.5966359E-05 Eh
 * total energy  :   -83.5875248 Eh     change       -0.1692794E-04 Eh
 * total energy  :   -83.5875297 Eh     change       -0.4959522E-05 Eh
 * total energy  :   -83.5875361 Eh     change       -0.6352389E-05 Eh
 * total energy  :   -83.5875387 Eh     change       -0.2617012E-05 Eh
   *** GEOMETRY OPTIMIZATION CONVERGED AFTER 28 ITERATIONS ***

 final structure:
================
42
 xtb: 6.5.1 (579679a)
C            6.59558420948666        2.92242763622177        0.54801329189688
O            5.35938195494575        2.70864632062657       -0.10831784471944
C            4.64426573628254        1.61972081348170        0.31818363984782
O            5.09312525548004        0.91264325248281        1.22345022166152
C            3.38908315187860        1.40766957570552       -0.36433280023946
N            2.70642246116159        0.29052243585530        0.09927100395995
C            1.57135610930622       -0.04124173200429       -0.39494958746348
C            0.82171153033702       -1.26627633690493        0.11123078241360
C            1.68076879272048       -1.94840223185386        1.18513564194586
C            0.58570290328716       -2.22992307504464       -1.07076193924767
N           -0.43535890845926       -0.78992599944422        0.69912659801626
C           -1.45480147595393       -1.79859807883536        0.99516034216302
O           -1.11182948399258       -2.97659737609696        1.36679895807217
C           -2.73405997266227       -1.32837427019009        0.91768071114396
N           -3.94093116558023       -2.01722170562096        1.17007907841041
N           -4.87567372475508       -1.12582685270627        0.87568233717726
C           -6.26291946539119       -1.49598229154046        1.01737322037136
C           -4.42007822508593        0.04473094013254        0.48005837143125
C           -5.20446159885941        1.23566797002683        0.06776920544973
O           -3.05110595745881        0.03333590088049        0.47645989137663
N            0.98352387337293        0.69945203662657       -1.40202173953248
C            1.54964918623961        1.81988497270928       -1.96200778412306
O            0.95283399509787        2.40926181241554       -2.87279930497175
C            2.87712991736431        2.23759732570808       -1.40317606763238
O            3.43613443497014        3.25700040520627       -1.87181389763716
H            7.26352643913728        2.06365225169487        0.41770847947230
H            6.44838411481779        3.08901023803435        1.62103733062211
H            7.04963948885872        3.80699163955693        0.10159023675576
H            1.19380614620132       -2.85265911697136        1.54660700470605
H            1.83167564351717       -1.26760333373131        2.02391668594611
H            2.65347457704751       -2.21197712698480        0.76864232089428
H            0.14929960300258       -3.16250277077727       -0.71452205144119
H            1.53280854669896       -2.44998260025696       -1.56380663383838
H           -0.09219885543232       -1.78425175933400       -1.79792822410088
H           -0.84812188610140       -0.07897622083296        0.10011175590623
H           -6.72470430587592       -0.91260072758283        1.81379957148842
H           -6.79310827676741       -1.30880716822924        0.08476645009347
H           -6.30598593869609       -2.55470087558327        1.26315719176273
H           -5.89346379845714        1.54513831517277        0.85584510379327
H           -4.52172379146400        2.05609194263805       -0.14546335920481
H           -5.79695350828685        1.03143970048946       -0.82721882163802
H            0.09819426806292        0.41154416486047       -1.78640137098900

          :  Hamiltonian                  GFN1-xTB          :
         :: total energy             -83.587538718088 Eh    ::
         :: gradient norm              0.000569552156 Eh/a0 ::
         :: HOMO-LUMO gap              0.132997369383 eV    ::
         :: SCC energy               -84.324034913308 Eh    ::
         :: -> Gsolv                  -0.287774319795 Eh    ::
         :: repulsion energy           0.761600298319 Eh    ::

    * Orbital Energies and Occupations

         #    Occupation            Energy/Eh            Energy/eV
      -------------------------------------------------------------
         1        2.0000           -0.8030999             -21.8535
       ...           ...                  ...                  ...
        56        2.0000           -0.4456957             -12.1280
        57        2.0000           -0.4399686             -11.9722
        58        2.0000           -0.4321126             -11.7584
        59        2.0000           -0.4186849             -11.3930
        60        2.0000           -0.4157660             -11.3136
        61        2.0000           -0.4063991             -11.0587
        62        2.0000           -0.3922869             -10.6747
        63        2.0000           -0.3734815             -10.1629
        64        2.0000           -0.3699055             -10.0656
        65        2.0000           -0.3587149              -9.7611
        66        2.0000           -0.3491688              -9.5014
        67        2.0000           -0.3446851              -9.3794
        68        1.8581           -0.2582414              -7.0271 (HOMO)
        69        0.1419           -0.2533539              -6.8941 (LUMO)
        70                         -0.2249829              -6.1221
        71                         -0.2136237              -5.8130
        72                         -0.1780140              -4.8440
        73                         -0.1392171              -3.7883
        74                         -0.1230907              -3.3495
        75                         -0.1153645              -3.1392
        76                         -0.1056043              -2.8736
        77                         -0.0979470              -2.6653
        78                         -0.0887892              -2.4161
        79                         -0.0845242              -2.3000
       ...                                ...                  ...
       134                          0.7520414              20.4641
      -------------------------------------------------------------
                  HL-Gap            0.0048876 Eh            0.1330 eV

Wiberg/Mayer (AO) data.
largest (>0.10) Wiberg bond orders for each atom

     #   Z sym  total        # sym  WBO       # sym  WBO       # sym  WBO
 ---------------------------------------------------------------------------
     1   6 C    3.908 --    28 H    0.987    27 H    0.980    26 H    0.980
                             2 O    0.936
     2   8 O    2.131 --     3 C    1.015     1 C    0.936     4 O    0.100
     3   6 C    3.811 --     4 O    1.538     5 C    1.153     2 O    1.015
     4   8 O    1.804 --     3 C    1.538     2 O    0.100
     5   6 C    3.899 --    24 C    1.255     3 C    1.153     6 N    1.136
                            25 O    0.122
     6   7 N    3.012 --     7 C    1.639     5 C    1.136
     7   6 C    3.925 --     6 N    1.639    21 N    1.094     8 C    0.974
     8   6 C    3.967 --     9 C    0.998    10 C    0.978     7 C    0.974
                            11 N    0.964
     9   6 C    3.996 --     8 C    0.998    31 H    0.988    30 H    0.986
                            29 H    0.980
    10   6 C    3.993 --    33 H    0.988    34 H    0.984    32 H    0.980
                             8 C    0.978
    11   7 N    3.042 --     8 C    0.964    12 C    0.940    35 H    0.940
    12   6 C    3.889 --    14 C    1.488    13 O    1.304    11 N    0.940
    13   8 O    1.635 --    12 C    1.304    14 C    0.141
    14   6 C    3.662 --    12 C    1.488    15 N    1.090    20 O    0.837
                            13 O    0.141
    15   7 N    2.742 --    16 N    1.187    14 C    1.090    18 C    0.302
    16   7 N    3.634 --    18 C    1.370    15 N    1.187    17 C    0.951
    17   6 C    3.954 --    38 H    0.985    37 H    0.982    36 H    0.980
                            16 N    0.951
    18   6 C    3.833 --    16 N    1.370    20 O    1.029    19 C    1.025
                            15 N    0.302
    19   6 C    3.993 --    18 C    1.025    40 H    0.983    39 H    0.973
                            41 H    0.970
    20   8 O    2.083 --    18 C    1.029    14 C    0.837
    21   7 N    3.405 --    22 C    1.147     7 C    1.094    42 H    0.902
                            23 O    0.126
    22   6 C    3.834 --    23 O    1.532    21 N    1.147    24 C    0.998
    23   8 O    1.795 --    22 C    1.532    21 N    0.126
    24   6 C    3.911 --    25 O    1.483     5 C    1.255    22 C    0.998
    25   8 O    1.769 --    24 C    1.483     5 C    0.122
    26   1 H    1.017 --     1 C    0.980
    27   1 H    1.017 --     1 C    0.980
    28   1 H    1.017 --     1 C    0.987
    29   1 H    1.035 --     9 C    0.980
    30   1 H    1.022 --     9 C    0.986
    31   1 H    1.017 --     9 C    0.988
    32   1 H    1.023 --    10 C    0.980
    33   1 H    1.007 --    10 C    0.988
    34   1 H    1.006 --    10 C    0.984
    35   1 H    0.984 --    11 N    0.940
    36   1 H    1.003 --    17 C    0.980
    37   1 H    1.002 --    17 C    0.982
    38   1 H    1.013 --    17 C    0.985
    39   1 H    1.003 --    19 C    0.973
    40   1 H    1.002 --    19 C    0.983
    41   1 H    1.002 --    19 C    0.970
    42   1 H    0.955 --    21 N    0.902
 ---------------------------------------------------------------------------

           -------------------------------------------------
          | TOTAL ENERGY              -83.587538718088 Eh   |
          | GRADIENT NORM               0.000569552156 Eh/α |
          | HOMO-LUMO GAP               0.132997369383 eV   |
           -------------------------------------------------

 * finished run on 2023/06/21 at 17:12:34.306
