   * xtb version 6.5.1 (579679a) compiled by 'ehlert@majestix' on 2022-07-11
          program call               : /lustre/hpc/kemi/ree/PhD/git/ReactivityQM/dep/xtb-6.5.1/bin/xtb --gfn 1 /lustre/hpc/kemi/ree/PhD/git/ReactivityQM/calculations/R02methylcation/reac01prodE02/conf02/R02methylcation_reac01prodE02_conf02_gfn1.xyz --opt --vfukui --chrg -2 --uhf 0 --alpb DMSO

   ID    Z sym.   atoms
    1    6 C      1, 3, 4, 6, 8-11, 13, 15, 18, 19, 22, 24
    2    8 O      2, 5, 14, 20, 23, 25
    3    7 N      7, 12, 16, 17, 21
    4    1 H      26-42

      * Solvation model:               ALPB
        Solvent                        DMSO
        Solvent mass                       7.8130E+01 g/mol
          :  Hamiltonian                  GFN1-xTB          :
 * total energy  :   -83.5968133 Eh     change       -0.3246896E-09 Eh
 * total energy  :   -83.6088754 Eh     change       -0.1206210E-01 Eh
 * total energy  :   -83.6139086 Eh     change       -0.5033220E-02 Eh
 * total energy  :   -83.6150964 Eh     change       -0.1187787E-02 Eh
 * total energy  :   -83.6159787 Eh     change       -0.8823447E-03 Eh
 * total energy  :   -83.6163965 Eh     change       -0.4177800E-03 Eh
 * total energy  :   -83.6166648 Eh     change       -0.2683185E-03 Eh
 * total energy  :   -83.6168249 Eh     change       -0.1600049E-03 Eh
 * total energy  :   -83.6169354 Eh     change       -0.1105926E-03 Eh
 * total energy  :   -83.6170358 Eh     change       -0.1003694E-03 Eh
 * total energy  :   -83.6176825 Eh     change       -0.1758526E-04 Eh
 * total energy  :   -83.6176897 Eh     change       -0.7224787E-05 Eh
 * total energy  :   -83.6177133 Eh     change       -0.2359867E-04 Eh
 * total energy  :   -83.6177247 Eh     change       -0.1134574E-04 Eh
 * total energy  :   -83.6177413 Eh     change       -0.1668343E-04 Eh
 * total energy  :   -83.6177502 Eh     change       -0.8821772E-05 Eh
 * total energy  :   -83.6177572 Eh     change       -0.7080905E-05 Eh
 * total energy  :   -83.6177632 Eh     change       -0.5951853E-05 Eh
 * total energy  :   -83.6177675 Eh     change       -0.4319602E-05 Eh
   *** GEOMETRY OPTIMIZATION CONVERGED AFTER 31 ITERATIONS ***

 final structure:
================
42
 xtb: 6.5.1 (579679a)
C           -5.33318486621380        2.53429492413580       -0.21351832669715
O           -4.02576288211201        2.04517199335688       -0.22344612233880
C           -3.91065410412750        0.48441027742231       -0.30386789524224
C           -3.62882337759845        0.26030868652062       -1.83900755154390
O           -4.95950307128479       -0.13648180856544        0.12127915067417
C           -2.58297082725900        0.20784050355682        0.48967497812671
N           -1.60485943975549       -0.40802727674098       -0.23121174487023
C           -0.48031529078743       -0.75162547881553        0.30622457572951
C            0.57108422169057       -1.49816118516915       -0.48702104505383
C            0.24315305285622       -1.42271552373299       -1.98117142925075
C            0.63211084316743       -2.95888175808454       -0.01203654383040
N            1.87723265234217       -0.85236930523743       -0.23633072006452
C            3.03221871988920       -1.27539646483635       -0.76875460799284
O            3.17299192515778       -2.23880814999790       -1.51118217425877
C            4.20003300482753       -0.44076371748606       -0.37136591903268
N            5.43081177133222       -0.58300389669288       -0.75935150237282
N            6.15307389098327        0.39969606445372       -0.14735651570602
C            5.31910207812051        1.07987660551837        0.57529029405595
C            5.61581526709637        2.24941685985061        1.43135538426507
O            4.06712684273312        0.60255615233802        0.47760996124353
N           -0.23438932119468       -0.52154120275818        1.64443477132456
C           -1.13617462539264        0.09512319991920        2.48215135716477
O           -0.81427999806473        0.26653449447884        3.67186241292815
C           -2.44308331053655        0.49532911956882        1.86743108725813
O           -3.30120081315949        1.05242485382836        2.60846907778698
H           -5.36233816445279        3.48113427558068        0.34418840328610
H           -5.71450234050640        2.73743893631556       -1.23179685192961
H           -6.03764946655624        1.83438376499820        0.27115070800689
H           -2.79485325810731        0.86827904063710       -2.18734107144856
H           -3.40890109352257       -0.79252024069214       -2.01340494775890
H           -4.52873487217076        0.52741251580350       -2.39201255865159
H            0.95647877369114       -2.00378416853703       -2.56171150786528
H            0.26922447648280       -0.38603458725839       -2.31545165818080
H           -0.75867144038789       -1.81802798466128       -2.14736736007584
H            1.34935699105915       -3.52900001476517       -0.59900822433523
H            0.92379614014508       -2.99776865529912        1.03618823092120
H           -0.35215165267090       -3.41239957233060       -0.12278987778280
H            1.89664648699797       -0.02692621750485        0.34231037307000
H            5.05713383661196        3.11922229057205        1.08568838256313
H            6.68065800851588        2.46408585614583        1.39334191024346
H            5.32124903364899        2.04502869449403        2.46044858627039
H            0.64370519852901       -0.79573090032591        2.04740751136681

          :  Hamiltonian                  GFN1-xTB          :
         :: total energy             -83.617767508100 Eh    ::
         :: gradient norm              0.000744044190 Eh/a0 ::
         :: HOMO-LUMO gap              0.266533853485 eV    ::
         :: SCC energy               -84.355823972073 Eh    ::
         :: -> Gsolv                  -0.310039550253 Eh    ::
         :: repulsion energy           0.763783445925 Eh    ::

    * Orbital Energies and Occupations

         #    Occupation            Energy/Eh            Energy/eV
      -------------------------------------------------------------
         1        2.0000           -0.8563573             -23.3027
       ...           ...                  ...                  ...
        56        2.0000           -0.4456129             -12.1257
        57        2.0000           -0.4396219             -11.9627
        58        2.0000           -0.4310052             -11.7282
        59        2.0000           -0.4272055             -11.6249
        60        2.0000           -0.4131595             -11.2426
        61        2.0000           -0.4054280             -11.0323
        62        2.0000           -0.4020070             -10.9392
        63        2.0000           -0.3800864             -10.3427
        64        2.0000           -0.3765374             -10.2461
        65        2.0000           -0.3454066              -9.3990
        66        2.0000           -0.3359959              -9.1429
        67        2.0000           -0.3136076              -8.5337
        68        1.9885           -0.3077131              -8.3733 (HOMO)
        69        0.0115           -0.2979182              -8.1068 (LUMO)
        70                         -0.2491325              -6.7792
        71                         -0.2151416              -5.8543
        72                         -0.2005177              -5.4564
        73                         -0.1859801              -5.0608
        74                         -0.1382551              -3.7621
        75                         -0.1073486              -2.9211
        76                         -0.1042914              -2.8379
        77                         -0.0913470              -2.4857
        78                         -0.0881289              -2.3981
        79                         -0.0824075              -2.2424
       ...                                ...                  ...
       134                          0.7518890              20.4599
      -------------------------------------------------------------
                  HL-Gap            0.0097949 Eh            0.2665 eV

Wiberg/Mayer (AO) data.
largest (>0.10) Wiberg bond orders for each atom

     #   Z sym  total        # sym  WBO       # sym  WBO       # sym  WBO
 ---------------------------------------------------------------------------
     1   6 C    3.946 --     2 O    0.997    26 H    0.982    27 H    0.979
                            28 H    0.968
     2   8 O    1.914 --     1 C    0.997     3 C    0.725
     3   6 C    3.889 --     5 O    1.264     4 C    0.932     6 C    0.914
                             2 O    0.725
     4   6 C    3.984 --    29 H    0.990    31 H    0.988    30 H    0.986
                             3 C    0.932
     5   8 O    1.545 --     3 C    1.264
     6   6 C    3.919 --    24 C    1.320     7 N    1.254     3 C    0.914
                            25 O    0.135
     7   7 N    3.040 --     8 C    1.537     6 C    1.254
     8   6 C    3.919 --     7 N    1.537    21 N    1.093     9 C    0.979
     9   6 C    3.923 --    10 C    0.995    11 C    0.983     8 C    0.979
                            12 N    0.901
    10   6 C    3.993 --     9 C    0.995    33 H    0.986    32 H    0.984
                            34 H    0.983
    11   6 C    3.991 --    37 H    0.986    36 H    0.985     9 C    0.983
                            35 H    0.982
    12   7 N    3.368 --    13 C    1.290     9 C    0.901    38 H    0.898
                            14 O    0.183
    13   6 C    3.918 --    14 O    1.561    12 N    1.290    15 C    0.987
    14   8 O    1.881 --    13 C    1.561    12 N    0.183
    15   6 C    3.863 --    16 N    1.622    20 O    1.046    13 C    0.987
    16   7 N    2.989 --    15 C    1.622    17 N    1.193
    17   7 N    2.980 --    18 C    1.616    16 N    1.193
    18   6 C    3.870 --    17 N    1.616    20 O    1.072    19 C    1.031
    19   6 C    3.988 --    18 C    1.031    40 H    0.983    41 H    0.965
                            39 H    0.964
    20   8 O    2.313 --    18 C    1.072    15 C    1.046
    21   7 N    3.415 --    22 C    1.145     8 C    1.093    42 H    0.907
                            23 O    0.127
    22   6 C    3.875 --    23 O    1.502    21 N    1.145    24 C    1.015
    23   8 O    1.793 --    22 C    1.502    21 N    0.127
    24   6 C    3.953 --    25 O    1.432     6 C    1.320    22 C    1.015
    25   8 O    1.739 --    24 C    1.432     6 C    0.135
    26   1 H    1.027 --     1 C    0.982
    27   1 H    1.022 --     1 C    0.979
    28   1 H    1.039 --     1 C    0.968
    29   1 H    1.024 --     4 C    0.990
    30   1 H    1.028 --     4 C    0.986
    31   1 H    1.021 --     4 C    0.988
    32   1 H    1.012 --    10 C    0.984
    33   1 H    1.011 --    10 C    0.986
    34   1 H    1.019 --    10 C    0.983
    35   1 H    1.012 --    11 C    0.982
    36   1 H    1.006 --    11 C    0.985
    37   1 H    1.006 --    11 C    0.986
    38   1 H    0.947 --    12 N    0.898
    39   1 H    0.997 --    19 C    0.964
    40   1 H    1.000 --    19 C    0.983
    41   1 H    0.997 --    19 C    0.965
    42   1 H    0.958 --    21 N    0.907
 ---------------------------------------------------------------------------

           -------------------------------------------------
          | TOTAL ENERGY              -83.617767508100 Eh   |
          | GRADIENT NORM               0.000744044190 Eh/α |
          | HOMO-LUMO GAP               0.266533853485 eV   |
           -------------------------------------------------

 * finished run on 2023/06/21 at 17:07:04.857
