   * xtb version 6.5.1 (579679a) compiled by 'ehlert@majestix' on 2022-07-11
          program call               : /lustre/hpc/kemi/ree/PhD/git/ReactivityQM/dep/xtb-6.5.1/bin/xtb --gfn 1 /lustre/hpc/kemi/ree/PhD/git/ReactivityQM/calculations/R03/reac02prodE04/conf02/R03_reac02prodE04_conf02_gfn1.xyz --opt --vfukui --chrg -1 --uhf 0 --alpb DMSO

   ID    Z sym.   atoms
    1    6 C      1, 3, 5, 6, 8-11, 13, 15, 18, 19, 22, 23, 25
    2    8 O      2, 4, 14, 20, 24, 26
    3    7 N      7, 12, 16, 17, 21
    4    1 H      27-46

      * Solvation model:               ALPB
        Solvent                        DMSO
        Solvent mass                       7.8130E+01 g/mol
          :  Hamiltonian                  GFN1-xTB          :
 * total energy  :   -87.0247280 Eh     change       -0.1437144E-09 Eh
 * total energy  :   -87.0396209 Eh     change       -0.1489291E-01 Eh
 * total energy  :   -87.0457547 Eh     change       -0.6133833E-02 Eh
 * total energy  :   -87.0469410 Eh     change       -0.1186320E-02 Eh
 * total energy  :   -87.0477965 Eh     change       -0.8554356E-03 Eh
 * total energy  :   -87.0481458 Eh     change       -0.3493240E-03 Eh
 * total energy  :   -87.0484359 Eh     change       -0.2900846E-03 Eh
 * total energy  :   -87.0486320 Eh     change       -0.1961715E-03 Eh
 * total energy  :   -87.0487943 Eh     change       -0.1622643E-03 Eh
 * total energy  :   -87.0489257 Eh     change       -0.1314266E-03 Eh
 * total energy  :   -87.0506054 Eh     change       -0.1656297E-04 Eh
 * total energy  :   -87.0506219 Eh     change       -0.1642811E-04 Eh
 * total energy  :   -87.0506348 Eh     change       -0.1289901E-04 Eh
 * total energy  :   -87.0506582 Eh     change       -0.2341204E-04 Eh
 * total energy  :   -87.0506652 Eh     change       -0.6970253E-05 Eh
 * total energy  :   -87.0506470 Eh     change        0.1820133E-04 Eh
 * total energy  :   -87.0506787 Eh     change       -0.3175069E-04 Eh
 * total energy  :   -87.0506842 Eh     change       -0.5515220E-05 Eh
 * total energy  :   -87.0506890 Eh     change       -0.4779772E-05 Eh
   *** GEOMETRY OPTIMIZATION CONVERGED AFTER 54 ITERATIONS ***

 final structure:
================
46
 xtb: 6.5.1 (579679a)
C           -1.75288270200477        3.51231819484764        0.11002983947655
O           -1.80673458809910        2.09250198029860        0.23251320103461
C           -2.98064552993173        1.57372433076145        0.62999278954697
O           -3.94287204745074        2.27295550846443        0.88195350783189
C           -3.00483023061821        0.03585643764061        0.59592632920183
C           -4.13541315591179       -0.45868344093843        1.51215994590386
N           -1.74143205274543       -0.49599900673202        1.08297793754481
C           -0.81760121329204       -0.88250463053259        0.27584420609992
C            0.43820367367219       -1.42084580117254        0.97887719308237
C            0.55113380589766       -2.93522395460364        0.74953199828460
C            0.34189445440304       -1.14158377525601        2.48673952907179
N            1.62097316068249       -0.71238529200829        0.46502119659315
C            2.88306599732792       -1.02938908022764        0.80698256994898
O            3.21732463498176       -1.96879092348362        1.51677925484304
C            3.89705580050071       -0.12516228456261        0.20584536807028
N            5.18624190585139       -0.19095952991192        0.35335244101327
N            5.72013001165354        0.81794577826382       -0.39293072238507
C            4.72674268769808        1.43655455495719       -0.95009199559161
C            4.79015175627496        2.60348498040508       -1.85726350242354
O            3.54441610406593        0.89248092291404       -0.61286779409932
N           -0.91698309766556       -0.85361207340042       -1.07985655708736
C            0.06715742049398       -1.37801398807540       -2.01934257417883
C           -2.24671521116833       -0.71158559027168       -1.69303386298771
O           -2.35737603309813       -1.00853098674582       -2.91868557050711
C           -3.23033794339143       -0.32079470758678       -0.84344013026144
O           -4.55940070149106       -0.18664669590294       -1.31547998551611
H           -1.78612553255046        3.97916495844112        1.09863958615491
H           -0.81295494033441        3.75531926101079       -0.38145975306205
H           -2.59370748835879        3.87950841793704       -0.48588458607420
H           -4.20398026840201       -1.54387679087241        1.45281369370005
H           -3.92930921346619       -0.17314870999215        2.54323058000851
H           -5.08432229978052       -0.02210644943864        1.20254830434205
H            0.86354105512527       -3.16141399981545       -0.26693718771395
H           -0.42161126963923       -3.39193978125220        0.92947854997908
H            1.27258907468271       -3.37372908155322        1.43662624196356
H           -0.52484623481032       -1.65411613735320        2.90034032394695
H            1.23974559724281       -1.49798050294949        2.98896537474933
H            0.23254538989661       -0.07233318673551        2.66260016374268
H            1.46913315932087        0.15879169498691       -0.01958590670163
H            4.32435169054900        3.46963554386737       -1.38747682947882
H            5.82914054891315        2.83213320532344       -2.08180452364827
H            4.25336855058033        2.39019336977470       -2.78095276887219
H            0.01877197255225       -0.77979903528640       -2.93169201805736
H           -0.16423013425110       -2.41587514077166       -2.27889614408811
H            1.07391816950997       -1.31831821547686       -1.61844126866740
H           -4.54728273343065       -0.47722234698252       -2.23925944473806

          :  Hamiltonian                  GFN1-xTB          :
         :: total energy             -87.050689001152 Eh    ::
         :: gradient norm              0.000490816487 Eh/a0 ::
         :: HOMO-LUMO gap              0.216962603222 eV    ::
         :: SCC energy               -87.848963282957 Eh    ::
         :: -> Gsolv                  -0.113242032416 Eh    ::
         :: repulsion energy           0.828479939069 Eh    ::

    * Orbital Energies and Occupations

         #    Occupation            Energy/Eh            Energy/eV
      -------------------------------------------------------------
         1        2.0000           -0.8576764             -23.3386
       ...           ...                  ...                  ...
        59        2.0000           -0.4727126             -12.8632
        60        2.0000           -0.4668569             -12.7038
        61        2.0000           -0.4663873             -12.6910
        62        2.0000           -0.4567592             -12.4290
        63        2.0000           -0.4517789             -12.2935
        64        2.0000           -0.4506417             -12.2626
        65        2.0000           -0.4425976             -12.0437
        66        2.0000           -0.4371719             -11.8961
        67        2.0000           -0.4314951             -11.7416
        68        2.0000           -0.3924482             -10.6791
        69        2.0000           -0.3844926             -10.4626
        70        2.0000           -0.3727124             -10.1420
        71        1.9703           -0.3092942              -8.4163 (HOMO)
        72        0.0297           -0.3013209              -8.1994 (LUMO)
        73                         -0.2506178              -6.8197
        74                         -0.2382033              -6.4818
        75                         -0.2191889              -5.9644
        76                         -0.1889789              -5.1424
        77                         -0.1394115              -3.7936
        78                         -0.1314744              -3.5776
        79                         -0.1276742              -3.4742
        80                         -0.1146910              -3.1209
        81                         -0.1080752              -2.9409
        82                         -0.1011200              -2.7516
       ...                                ...                  ...
       144                          0.7276738              19.8010
      -------------------------------------------------------------
                  HL-Gap            0.0079732 Eh            0.2170 eV

Wiberg/Mayer (AO) data.
largest (>0.10) Wiberg bond orders for each atom

     #   Z sym  total        # sym  WBO       # sym  WBO       # sym  WBO
 ---------------------------------------------------------------------------
     1   6 C    3.889 --    28 H    0.987    27 H    0.981    29 H    0.980
                             2 O    0.911
     2   8 O    2.178 --     3 C    1.087     1 C    0.911     4 O    0.120
     3   6 C    3.804 --     4 O    1.645     2 O    1.087     5 C    0.916
     4   8 O    1.906 --     3 C    1.645     2 O    0.120
     5   6 C    3.965 --     6 C    0.985     7 N    0.973    25 C    0.962
                             3 C    0.916
     6   6 C    3.995 --    31 H    0.988    30 H    0.988    32 H    0.985
                             5 C    0.985
     7   7 N    2.974 --     8 C    1.642     5 C    0.973    21 N    0.176
     8   6 C    3.951 --     7 N    1.642    21 N    1.206     9 C    0.962
     9   6 C    3.926 --    11 C    0.992    10 C    0.989     8 C    0.962
                            12 N    0.912
    10   6 C    3.992 --     9 C    0.989    34 H    0.986    33 H    0.982
                            35 H    0.981
    11   6 C    3.992 --     9 C    0.992    38 H    0.985    36 H    0.984
                            37 H    0.984
    12   7 N    3.365 --    13 C    1.269     9 C    0.912    39 H    0.900
                            14 O    0.177
    13   6 C    3.911 --    14 O    1.565    12 N    1.269    15 C    0.994
    14   8 O    1.880 --    13 C    1.565    12 N    0.177
    15   6 C    3.857 --    16 N    1.614    20 O    1.044    13 C    0.994
    16   7 N    2.981 --    15 C    1.614    17 N    1.194
    17   7 N    2.981 --    18 C    1.616    16 N    1.194
    18   6 C    3.867 --    17 N    1.616    20 O    1.071    19 C    1.031
    19   6 C    3.987 --    18 C    1.031    41 H    0.983    42 H    0.966
                            40 H    0.962
    20   8 O    2.308 --    18 C    1.071    15 C    1.044
    21   7 N    3.365 --     8 C    1.206    22 C    0.955    23 C    0.891
                             7 N    0.176
    22   6 C    3.957 --    45 H    0.981    43 H    0.980    44 H    0.979
                            21 N    0.955
    23   6 C    3.911 --    25 C    1.523    24 O    1.356    21 N    0.891
    24   8 O    1.715 --    23 C    1.356    25 C    0.167
    25   6 C    3.779 --    23 C    1.523     5 C    0.962    26 O    0.947
                            24 O    0.167
    26   8 O    1.914 --    25 C    0.947    46 H    0.856
    27   1 H    1.010 --     1 C    0.981
    28   1 H    1.014 --     1 C    0.987
    29   1 H    1.012 --     1 C    0.980
    30   1 H    1.012 --     6 C    0.988
    31   1 H    1.010 --     6 C    0.988
    32   1 H    1.016 --     6 C    0.985
    33   1 H    1.005 --    10 C    0.982
    34   1 H    1.005 --    10 C    0.986
    35   1 H    1.015 --    10 C    0.981
    36   1 H    1.020 --    11 C    0.984
    37   1 H    1.010 --    11 C    0.984
    38   1 H    1.017 --    11 C    0.985
    39   1 H    0.949 --    12 N    0.900
    40   1 H    0.997 --    19 C    0.962
    41   1 H    0.999 --    19 C    0.983
    42   1 H    0.997 --    19 C    0.966
    43   1 H    1.023 --    22 C    0.980
    44   1 H    1.014 --    22 C    0.979
    45   1 H    1.013 --    22 C    0.981
    46   1 H    0.891 --    26 O    0.856
 ---------------------------------------------------------------------------

           -------------------------------------------------
          | TOTAL ENERGY              -87.050689001152 Eh   |
          | GRADIENT NORM               0.000490816487 Eh/α |
          | HOMO-LUMO GAP               0.216962603222 eV   |
           -------------------------------------------------

 * finished run on 2023/06/20 at 15:18:01.861
