   * xtb version 6.5.1 (579679a) compiled by 'ehlert@majestix' on 2022-07-11
          program call               : /lustre/hpc/kemi/ree/PhD/git/ReactivityQM/dep/xtb-6.5.1/bin/xtb --gfn 1 /lustre/hpc/kemi/ree/PhD/git/ReactivityQM/calculations/RaltegravirCLI/reac01prodE04/conf01/RaltegravirCLI_reac01prodE04_conf01_gfn1.xyz --opt --vfukui --chrg -1 --uhf 0 --alpb DMSO

   ID    Z sym.   atoms
    1    6 C      1, 2, 5-7
    2    7 N      3, 4
    3    8 O      8, 10
    4   17 Cl     9
    5    1 H      11-16

      * Solvation model:               ALPB
        Solvent                        DMSO
        Solvent mass                       7.8130E+01 g/mol
          :  Hamiltonian                  GFN1-xTB          :
 * total energy  :   -34.1283550 Eh     change       -0.1248424E-10 Eh
 * total energy  :   -34.1336599 Eh     change       -0.5304859E-02 Eh
 * total energy  :   -34.1361448 Eh     change       -0.2484893E-02 Eh
 * total energy  :   -34.1373363 Eh     change       -0.1191479E-02 Eh
 * total energy  :   -34.1402166 Eh     change       -0.2880382E-02 Eh
 * total energy  :   -34.1414793 Eh     change       -0.1262706E-02 Eh
 * total energy  :   -34.1433570 Eh     change       -0.1877692E-02 Eh
 * total energy  :   -34.1444457 Eh     change       -0.1088717E-02 Eh
 * total energy  :   -34.1465054 Eh     change       -0.2059649E-02 Eh
 * total energy  :   -34.1476331 Eh     change       -0.1127656E-02 Eh
 * total energy  :   -34.1513959 Eh     change       -0.2553713E-04 Eh
 * total energy  :   -34.1513736 Eh     change        0.2223105E-04 Eh
 * total energy  :   -34.1514173 Eh     change       -0.4367133E-04 Eh
 * total energy  :   -34.1514309 Eh     change       -0.1356235E-04 Eh
 * total energy  :   -34.1514501 Eh     change       -0.1922973E-04 Eh
 * total energy  :   -34.1514582 Eh     change       -0.8137107E-05 Eh
 * total energy  :   -34.1514652 Eh     change       -0.6916557E-05 Eh
 * total energy  :   -34.1514656 Eh     change       -0.4637586E-06 Eh
 * total energy  :   -34.1514675 Eh     change       -0.1860550E-05 Eh
   *** GEOMETRY OPTIMIZATION CONVERGED AFTER 44 ITERATIONS ***

 final structure:
================
16
 xtb: 6.5.1 (579679a)
C            2.71493904185738       -0.35047935365596        0.01299075459652
C            1.24638896619671       -0.18089475441281       -0.15549600197808
N            0.44524432938356       -1.09581610453213       -0.54228784874341
N           -0.86638574103901       -0.51724890732668       -0.59105676382575
C           -1.73991704210600       -1.29483278697347        0.30050177991375
C           -0.66892758790039        0.85786173022463       -0.13524904187333
C           -1.57831887917801        1.82701209288418       -0.31003089981604
O           -2.78081209313949        1.82470477581953       -0.58070568990858
Cl          -0.84499993822122        3.53463176932844        0.19085715372688
O            0.71048777654357        1.02009493634943        0.11567600616917
H            3.00702229758827       -0.06848507350148        1.02406611062281
H            2.98814320063487       -1.38695083800687       -0.16906295326383
H            3.25018991058657        0.29271938689381       -0.68561794470050
H           -2.73893421963206       -0.86304907970574        0.25136347410217
H           -1.76652681588289       -2.32210842316864       -0.05878146183184
H           -1.37759120569187       -1.27715737021634        1.33283432681002

          :  Hamiltonian                  GFN1-xTB          :
         :: total energy             -34.151467489295 Eh    ::
         :: gradient norm              0.000330802551 Eh/a0 ::
         :: HOMO-LUMO gap              2.673961991056 eV    ::
         :: SCC energy               -34.422786636635 Eh    ::
         :: -> Gsolv                  -0.094266877008 Eh    ::
         :: repulsion energy           0.278746515705 Eh    ::

    * Orbital Energies and Occupations

         #    Occupation            Energy/Eh            Energy/eV
      -------------------------------------------------------------
         1        2.0000           -0.8442328             -22.9727
       ...           ...                  ...                  ...
        16        2.0000           -0.5186279             -14.1126
        17        2.0000           -0.5142393             -13.9932
        18        2.0000           -0.5112512             -13.9119
        19        2.0000           -0.4996007             -13.5948
        20        2.0000           -0.4952384             -13.4761
        21        2.0000           -0.4773980             -12.9907
        22        2.0000           -0.4409215             -11.9981
        23        2.0000           -0.4398237             -11.9682
        24        2.0000           -0.4367284             -11.8840
        25        2.0000           -0.4277502             -11.6397
        26        2.0000           -0.4118038             -11.2058
        27        2.0000           -0.4039396             -10.9918
        28        2.0000           -0.3199233              -8.7056 (HOMO)
        29                         -0.2216570              -6.0316 (LUMO)
        30                         -0.1787725              -4.8646
        31                         -0.1555545              -4.2329
        32                         -0.1274841              -3.4690
        33                         -0.1011849              -2.7534
        34                         -0.0608439              -1.6556
        35                         -0.0599130              -1.6303
        36                         -0.0489076              -1.3308
        37                         -0.0445745              -1.2129
        38                         -0.0089934              -0.2447
        39                          0.0217002               0.5905
       ...                                ...                  ...
        57                          0.7896957              21.4887
      -------------------------------------------------------------
                  HL-Gap            0.0982663 Eh            2.6740 eV

Wiberg/Mayer (AO) data.
largest (>0.10) Wiberg bond orders for each atom

     #   Z sym  total        # sym  WBO       # sym  WBO       # sym  WBO
 ---------------------------------------------------------------------------
     1   6 C    3.994 --     2 C    1.018    12 H    0.986    11 H    0.972
                            13 H    0.970
     2   6 C    3.902 --     3 N    1.722    10 O    1.070     1 C    1.018
     3   7 N    2.956 --     2 C    1.722     4 N    0.992    10 O    0.124
     4   7 N    3.081 --     3 N    0.992     5 C    0.962     6 C    0.949
     5   6 C    3.975 --    15 H    0.989    14 H    0.987    16 H    0.984
                             4 N    0.962
     6   6 C    3.739 --     7 C    1.599     4 N    0.949    10 O    0.906
                             8 O    0.188
     7   6 C    3.885 --     6 C    1.599     8 O    1.518     9 Cl   0.645
     8   8 O    1.877 --     7 C    1.518     6 C    0.188     9 Cl   0.115
     9  17 Cl   0.812 --     7 C    0.645     8 O    0.115
    10   8 O    2.195 --     2 C    1.070     6 C    0.906     3 N    0.124
    11   1 H    1.002 --     1 C    0.972
    12   1 H    1.004 --     1 C    0.986
    13   1 H    1.002 --     1 C    0.970
    14   1 H    1.022 --     5 C    0.987
    15   1 H    1.021 --     5 C    0.989
    16   1 H    1.015 --     5 C    0.984
 ---------------------------------------------------------------------------

           -------------------------------------------------
          | TOTAL ENERGY              -34.151467489295 Eh   |
          | GRADIENT NORM               0.000330802551 Eh/α |
          | HOMO-LUMO GAP               2.673961991056 eV   |
           -------------------------------------------------

 * finished run on 2023/06/20 at 14:53:33.323
