   * xtb version 6.5.1 (579679a) compiled by 'ehlert@majestix' on 2022-07-11
          program call               : /lustre/hpc/kemi/ree/PhD/git/ReactivityQM/dep/xtb-6.5.1/bin/xtb --gfn 1 /lustre/hpc/kemi/ree/PhD/git/ReactivityQM/calculations/RaltegravirCLI/reac01prodN05/conf02/RaltegravirCLI_reac01prodN05_conf02_gfn1.xyz --opt --vfukui --chrg 1 --uhf 0 --alpb DMSO

   ID    Z sym.   atoms
    1    6 C      1, 2, 5-7
    2    7 N      3, 4
    3    8 O      8, 10
    4   17 Cl     9
    5    1 H      11-16

      * Solvation model:               ALPB
        Solvent                        DMSO
        Solvent mass                       7.8130E+01 g/mol
          :  Hamiltonian                  GFN1-xTB          :
 * total energy  :   -33.3802217 Eh     change       -0.2330580E-11 Eh
 * total energy  :   -33.3884317 Eh     change       -0.8210033E-02 Eh
 * total energy  :   -33.3915223 Eh     change       -0.3090589E-02 Eh
 * total energy  :   -33.3918390 Eh     change       -0.3167177E-03 Eh
 * total energy  :   -33.3920052 Eh     change       -0.1661271E-03 Eh
 * total energy  :   -33.3920598 Eh     change       -0.5468385E-04 Eh
 * total energy  :   -33.3921212 Eh     change       -0.6134549E-04 Eh
 * total energy  :   -33.3921514 Eh     change       -0.3026083E-04 Eh
 * total energy  :   -33.3921604 Eh     change       -0.8988874E-05 Eh
 * total energy  :   -33.3921651 Eh     change       -0.4686827E-05 Eh
   *** GEOMETRY OPTIMIZATION CONVERGED AFTER 10 ITERATIONS ***

 final structure:
================
16
 xtb: 6.5.1 (579679a)
C            2.69788850472932       -0.26102226432239        0.06187013950227
C            1.28589979323689       -0.16467385601888       -0.27123274032567
N            0.75551997557673       -0.29065133077617       -1.53494782683733
N           -0.49460079739831       -0.16683212744451       -1.44293027428171
C           -0.85817458476445        0.08130405886229       -0.09769725830926
C           -1.87196968974543       -0.90013068737558        0.49145793442667
C           -1.52809948844727        1.53475573284411       -0.09516305375750
O           -2.58560021235794        1.65357309182901       -0.61054218522168
Cl          -0.63948296678808        2.73428165457279        0.66501851310900
O            0.36434105585131        0.05256707611688        0.59351867479066
H            2.86619966586198       -0.06046428566553        1.11723734883278
H            3.26748210673875        0.43076787166661       -0.56382961155557
H            3.05042025196013       -1.26523489439307       -0.19320723996418
H           -2.04514028836672       -0.64909712379953        1.53534374334467
H           -1.46555492389947       -1.90635306595065        0.41800632941619
H           -2.79912640218750       -0.82278985014540       -0.07290349316932

          :  Hamiltonian                  GFN1-xTB          :
         :: total energy             -33.392165122797 Eh    ::
         :: gradient norm              0.000937695505 Eh/a0 ::
         :: HOMO-LUMO gap              2.023983956446 eV    ::
         :: SCC energy               -33.670841653777 Eh    ::
         :: -> Gsolv                  -0.085537597631 Eh    ::
         :: repulsion energy           0.286632048099 Eh    ::

    * Orbital Energies and Occupations

         #    Occupation            Energy/Eh            Energy/eV
      -------------------------------------------------------------
         1        2.0000           -1.0042675             -27.3275
       ...           ...                  ...                  ...
        15        2.0000           -0.6379589             -17.3597
        16        2.0000           -0.6144771             -16.7208
        17        2.0000           -0.6052872             -16.4707
        18        2.0000           -0.6037157             -16.4279
        19        2.0000           -0.5864478             -15.9581
        20        2.0000           -0.5828824             -15.8610
        21        2.0000           -0.5755705             -15.6621
        22        2.0000           -0.5706419             -15.5280
        23        2.0000           -0.5678384             -15.4517
        24        2.0000           -0.5358631             -14.5816
        25        2.0000           -0.5336214             -14.5206
        26        2.0000           -0.5245884             -14.2748
        27        2.0000           -0.5135077             -13.9733 (HOMO)
        28                         -0.4391277             -11.9493 (LUMO)
        29                         -0.3570117              -9.7148
        30                         -0.3398569              -9.2480
        31                         -0.2508252              -6.8253
        32                         -0.1822401              -4.9590
        33                         -0.1644474              -4.4748
        34                         -0.1366092              -3.7173
        35                         -0.1291701              -3.5149
        36                         -0.1278275              -3.4784
        37                         -0.1141681              -3.1067
        38                         -0.1106275              -3.0103
       ...                                ...                  ...
        57                          0.7157734              19.4772
      -------------------------------------------------------------
                  HL-Gap            0.0743800 Eh            2.0240 eV

Wiberg/Mayer (AO) data.
largest (>0.10) Wiberg bond orders for each atom

     #   Z sym  total        # sym  WBO       # sym  WBO       # sym  WBO
 ---------------------------------------------------------------------------
     1   6 C    3.961 --     2 C    1.091    11 H    0.970    12 H    0.919
                            13 H    0.907
     2   6 C    3.799 --    10 O    1.291     3 N    1.182     1 C    1.091
     3   7 N    3.024 --     4 N    1.672     2 C    1.182
     4   7 N    3.012 --     3 N    1.672     5 C    1.078
     5   6 C    3.841 --     4 N    1.078     6 C    0.911    10 O    0.907
                             7 C    0.780
     6   6 C    3.942 --    14 H    0.977    15 H    0.973    16 H    0.973
                             5 C    0.911
     7   6 C    3.876 --     8 O    1.835     9 Cl   1.150     5 C    0.780
     8   8 O    2.136 --     7 C    1.835     9 Cl   0.157
     9  17 Cl   1.403 --     7 C    1.150     8 O    0.157
    10   8 O    2.380 --     2 C    1.291     5 C    0.907
    11   1 H    0.984 --     1 C    0.970
    12   1 H    0.978 --     1 C    0.919
    13   1 H    0.973 --     1 C    0.907
    14   1 H    0.989 --     6 C    0.977
    15   1 H    0.988 --     6 C    0.973
    16   1 H    0.993 --     6 C    0.973
 ---------------------------------------------------------------------------

           -------------------------------------------------
          | TOTAL ENERGY              -33.392165122797 Eh   |
          | GRADIENT NORM               0.000937695505 Eh/α |
          | HOMO-LUMO GAP               2.023983956446 eV   |
           -------------------------------------------------

 * finished run on 2023/06/20 at 14:54:59.290
