   * xtb version 6.5.1 (579679a) compiled by 'ehlert@majestix' on 2022-07-11
          program call               : /lustre/hpc/kemi/ree/PhD/git/ReactivityQM/dep/xtb-6.5.1/bin/xtb --gfn 1 /lustre/hpc/kemi/ree/PhD/git/ReactivityQM/calculations/RaltegravirCLI/reac02prodN03/conf15/RaltegravirCLI_reac02prodN03_conf15_gfn1.xyz --opt --vfukui --chrg 1 --uhf 0 --alpb DMSO

   ID    Z sym.   atoms
    1    6 C      1, 3-5, 8-12, 14, 15, 17-20, 23, 24
    2    8 O      2, 6, 25
    3    7 N      7, 16, 21, 22
    4    9 F      13
    5    1 H      26-47

      * Solvation model:               ALPB
        Solvent                        DMSO
        Solvent mass                       7.8130E+01 g/mol
          :  Hamiltonian                  GFN1-xTB          :
 * total energy  :   -79.4797617 Eh     change       -0.4504841E-11 Eh
 * total energy  :   -79.4944592 Eh     change       -0.1469751E-01 Eh
 * total energy  :   -79.5021313 Eh     change       -0.7672078E-02 Eh
 * total energy  :   -79.5067178 Eh     change       -0.4586529E-02 Eh
 * total energy  :   -79.5118832 Eh     change       -0.5165354E-02 Eh
 * total energy  :   -79.5154847 Eh     change       -0.3601595E-02 Eh
 * total energy  :   -79.5209941 Eh     change       -0.5509308E-02 Eh
 * total energy  :   -79.5239109 Eh     change       -0.2916839E-02 Eh
 * total energy  :   -79.5268511 Eh     change       -0.2940202E-02 Eh
 * total energy  :   -79.5290735 Eh     change       -0.2222354E-02 Eh
 * total energy  :   -79.5367939 Eh     change       -0.1091240E-03 Eh
 * total energy  :   -79.5368207 Eh     change       -0.2679004E-04 Eh
 * total energy  :   -79.5368418 Eh     change       -0.2109999E-04 Eh
 * total energy  :   -79.5368501 Eh     change       -0.8247766E-05 Eh
 * total energy  :   -79.5368622 Eh     change       -0.1212802E-04 Eh
 * total energy  :   -79.5368695 Eh     change       -0.7307410E-05 Eh
 * total energy  :   -79.5368746 Eh     change       -0.5139121E-05 Eh
 * total energy  :   -79.5368806 Eh     change       -0.5952218E-05 Eh
 * total energy  :   -79.5368843 Eh     change       -0.3687457E-05 Eh
   *** GEOMETRY OPTIMIZATION CONVERGED AFTER 44 ITERATIONS ***

 final structure:
================
47
 xtb: 6.5.1 (579679a)
C           -0.44762923604297       -3.93972716689640       -2.72390056276295
O            0.03917989414942       -3.01138373697639       -1.73799664079260
C           -0.73373587003458       -2.07140360218177       -1.17821113860305
C           -0.17373464344035       -1.22517881999743       -0.24698531174836
C            1.21848767504143       -1.26103062457143        0.16684747081531
O            2.08780253593992       -2.11426585328390       -0.30172775368775
N            1.61663285051639       -0.39075019214720        1.05215970037392
C            2.98321924994391       -0.29024607225068        1.56580608651335
C            3.75113017530951        0.76302590484789        0.79568388464638
C            4.20748382709886        0.48504610745220       -0.49150483828817
C            4.90388217629957        1.44333732296103       -1.21257944449405
C            5.12954411064715        2.67435188817387       -0.62105251931831
F            5.79814151024700        3.60582069686944       -1.31171588880073
C            4.69080576366605        2.98061264526183        0.65469826220021
C            3.99367944212953        2.01128850840702        1.36263565376693
N           -0.91425509386873       -0.27263948360494        0.38873491103697
C           -2.17218434677637       -0.10666168022928        0.10265386610989
C           -2.89054099123092        0.97900269127890        0.89056535363232
C           -2.86859517666569        2.28127887301439        0.07565061107047
C           -2.15462441739615        1.20192347386135        2.22274793037069
N           -4.26838410164139        0.58774872091905        1.15641001956634
N           -2.77818523283528       -0.84951800623754       -0.86867266989997
C           -4.17001015966843       -0.63681397531718       -1.28872396037321
C           -2.14410491045635       -1.90216905418610       -1.52393220082407
O           -2.75425428429356       -2.59073450163655       -2.32786484200068
H           -0.79357333008190       -3.40713739977056       -3.61116286398827
H            0.40684353776200       -4.56728258675880       -2.97301798078509
H           -1.25279175438642       -4.54899124527335       -2.31045147198565
H            1.68913028061465       -2.75715848959379       -0.92586235028173
H            0.91831415091502        0.26687243966422        1.38384281195385
H            3.45154658779415       -1.27153498679205        1.46287354438610
H            2.90967810250515       -0.02729598667048        2.62258510771451
H            4.01653695339829       -0.48556484281484       -0.93159155693920
H            5.26263054617027        1.24174792854844       -2.21355522692659
H            4.88698772475578        3.95504721767299        1.08269035228263
H            3.63986220148738        2.22929334537994        2.36290782968896
H           -3.43358473701380        2.17643628764508       -0.84889640672328
H           -1.84074188710581        2.54654808440959       -0.16739795908766
H           -3.30949892007052        3.08298979244483        0.66623025980911
H           -2.09515880555540        0.26771700553330        2.77820282106396
H           -1.14582936854687        1.56989270249924        2.04541781881554
H           -2.70119926940892        1.93302673444791        2.81605088195569
H           -4.75938761553096        1.37667352751061        1.55547634276465
H           -4.27534412787031       -0.15740866795397        1.84071030513133
H           -4.25977839311254       -0.93962730282567       -2.33167308146930
H           -4.43415335549100        0.40873448775910       -1.18396255530637
H           -4.83024026786587       -1.24389110858958       -0.67123160057847

          :  Hamiltonian                  GFN1-xTB          :
         :: total energy             -79.536884282219 Eh    ::
         :: gradient norm              0.000300197730 Eh/a0 ::
         :: HOMO-LUMO gap              1.651137160173 eV    ::
         :: SCC energy               -80.431978846922 Eh    ::
         :: -> Gsolv                  -0.097518899716 Eh    ::
         :: repulsion energy           0.925050332441 Eh    ::

    * Orbital Energies and Occupations

         #    Occupation            Energy/Eh            Energy/eV
      -------------------------------------------------------------
         1        2.0000           -0.8771863             -23.8695
       ...           ...                  ...                  ...
        55        2.0000           -0.5192479             -14.1295
        56        2.0000           -0.5112488             -13.9118
        57        2.0000           -0.5062698             -13.7763
        58        2.0000           -0.5057082             -13.7610
        59        2.0000           -0.4951371             -13.4734
        60        2.0000           -0.4873922             -13.2626
        61        2.0000           -0.4839148             -13.1680
        62        2.0000           -0.4746733             -12.9165
        63        2.0000           -0.4703578             -12.7991
        64        2.0000           -0.4657971             -12.6750
        65        2.0000           -0.4534583             -12.3392
        66        2.0000           -0.4453822             -12.1195
        67        2.0000           -0.4229690             -11.5096 (HOMO)
        68                         -0.3622909              -9.8584 (LUMO)
        69                         -0.3037760              -8.2662
        70                         -0.2876253              -7.8267
        71                         -0.2839894              -7.7277
        72                         -0.2762555              -7.5173
        73                         -0.1864989              -5.0749
        74                         -0.1615445              -4.3958
        75                         -0.1466668              -3.9910
        76                         -0.1414507              -3.8491
        77                         -0.1404047              -3.8206
        78                         -0.1383546              -3.7648
       ...                                ...                  ...
       144                          0.6738706              18.3370
      -------------------------------------------------------------
                  HL-Gap            0.0606782 Eh            1.6511 eV

Wiberg/Mayer (AO) data.
largest (>0.10) Wiberg bond orders for each atom

     #   Z sym  total        # sym  WBO       # sym  WBO       # sym  WBO
 ---------------------------------------------------------------------------
     1   6 C    3.844 --    27 H    0.983    26 H    0.977    28 H    0.977
                             2 O    0.868
     2   8 O    2.215 --     3 C    1.097     1 C    0.868
     3   6 C    3.909 --     4 C    1.436     2 O    1.097    24 C    1.070
     4   6 C    3.962 --     3 C    1.436    16 N    1.187     5 C    1.092
     5   6 C    3.877 --     7 N    1.475     6 O    1.189     4 C    1.092
     6   8 O    2.155 --     5 C    1.189    29 H    0.762     7 N    0.102
     7   7 N    3.490 --     5 C    1.475     8 C    0.914    30 H    0.871
                             6 O    0.102
     8   6 C    3.914 --     9 C    0.986    32 H    0.971    31 H    0.968
                             7 N    0.914
     9   6 C    3.981 --    15 C    1.422    10 C    1.415     8 C    0.986
    10   6 C    3.993 --    11 C    1.449     9 C    1.415    33 H    0.970
                            14 C    0.111
    11   6 C    3.991 --    10 C    1.449    12 C    1.395    34 H    0.968
                            15 C    0.109
    12   6 C    3.864 --    14 C    1.401    11 C    1.395    13 F    0.935
    13   9 F    1.066 --    12 C    0.935
    14   6 C    3.990 --    15 C    1.442    12 C    1.401    35 H    0.968
                            10 C    0.111
    15   6 C    3.993 --    14 C    1.442     9 C    1.422    36 H    0.970
                            11 C    0.109
    16   7 N    3.046 --    17 C    1.532     4 C    1.187
    17   6 C    3.912 --    16 N    1.532    22 N    1.198    18 C    0.977
    18   6 C    3.964 --    21 N    0.989    20 C    0.987    19 C    0.977
                            17 C    0.977
    19   6 C    3.991 --    38 H    0.985    39 H    0.981    37 H    0.980
                            18 C    0.977
    20   6 C    3.993 --    18 C    0.987    40 H    0.985    42 H    0.984
                            41 H    0.982
    21   7 N    2.977 --    18 C    0.989    44 H    0.939    43 H    0.935
    22   7 N    3.526 --    17 C    1.198    24 C    1.122    23 C    0.920
                            25 O    0.137
    23   6 C    3.910 --    46 H    0.977    45 H    0.975    47 H    0.973
                            22 N    0.920
    24   6 C    3.918 --    25 O    1.579    22 N    1.122     3 C    1.070
    25   8 O    1.921 --    24 C    1.579    22 N    0.137
    26   1 H    1.010 --     1 C    0.977
    27   1 H    1.008 --     1 C    0.983
    28   1 H    1.010 --     1 C    0.977
    29   1 H    0.824 --     6 O    0.762
    30   1 H    0.947 --     7 N    0.871
    31   1 H    1.000 --     8 C    0.968
    32   1 H    0.996 --     8 C    0.971
    33   1 H    1.003 --    10 C    0.970
    34   1 H    0.996 --    11 C    0.968
    35   1 H    0.996 --    14 C    0.968
    36   1 H    0.997 --    15 C    0.970
    37   1 H    1.003 --    19 C    0.980
    38   1 H    1.002 --    19 C    0.985
    39   1 H    0.998 --    19 C    0.981
    40   1 H    1.005 --    20 C    0.985
    41   1 H    1.011 --    20 C    0.982
    42   1 H    1.001 --    20 C    0.984
    43   1 H    0.950 --    21 N    0.935
    44   1 H    0.953 --    21 N    0.939
    45   1 H    1.006 --    23 C    0.975
    46   1 H    1.023 --    23 C    0.977
    47   1 H    1.010 --    23 C    0.973
 ---------------------------------------------------------------------------

           -------------------------------------------------
          | TOTAL ENERGY              -79.536884282219 Eh   |
          | GRADIENT NORM               0.000300197730 Eh/α |
          | HOMO-LUMO GAP               1.651137160173 eV   |
           -------------------------------------------------

 * finished run on 2023/06/20 at 15:19:49.331
