   * xtb version 6.5.1 (579679a) compiled by 'ehlert@majestix' on 2022-07-11
          program call               : /lustre/hpc/kemi/ree/PhD/git/ReactivityQM/dep/xtb-6.5.1/bin/xtb --gfn 1 /lustre/hpc/kemi/ree/PhD/git/ReactivityQM/calculations/R02/reac01prodN11/conf18/R02_reac01prodN11_conf18_gfn1.xyz --opt --vfukui --chrg 1 --uhf 0 --alpb DMSO

   ID    Z sym.   atoms
    1    6 C      1, 3, 5, 7-10, 12, 13, 15, 18, 19, 22, 24
    2    8 O      2, 4, 14, 20, 23, 25
    3    7 N      6, 11, 16, 17, 21
    4    1 H      26-43

      * Solvation model:               ALPB
        Solvent                        DMSO
        Solvent mass                       7.8130E+01 g/mol
          :  Hamiltonian                  GFN1-xTB          :
 * total energy  :   -83.0171645 Eh     change       -0.1054445E-10 Eh
 * total energy  :   -83.0353510 Eh     change       -0.1818650E-01 Eh
 * total energy  :   -83.0439914 Eh     change       -0.8640445E-02 Eh
 * total energy  :   -83.0462183 Eh     change       -0.2226881E-02 Eh
 * total energy  :   -83.0481191 Eh     change       -0.1900839E-02 Eh
 * total energy  :   -83.0490476 Eh     change       -0.9284748E-03 Eh
 * total energy  :   -83.0496413 Eh     change       -0.5936383E-03 Eh
 * total energy  :   -83.0500097 Eh     change       -0.3684763E-03 Eh
 * total energy  :   -83.0502402 Eh     change       -0.2304887E-03 Eh
 * total energy  :   -83.0504220 Eh     change       -0.1817586E-03 Eh
 * total energy  :   -83.1390927 Eh     change       -0.7229778E-05 Eh
 * total energy  :   -83.1390986 Eh     change       -0.5879908E-05 Eh
 * total energy  :   -83.1391057 Eh     change       -0.7038710E-05 Eh
 * total energy  :   -83.1391123 Eh     change       -0.6631607E-05 Eh
 * total energy  :   -83.1391186 Eh     change       -0.6323509E-05 Eh
 * total energy  :   -83.1391249 Eh     change       -0.6265954E-05 Eh
 * total energy  :   -83.1391310 Eh     change       -0.6108702E-05 Eh
 * total energy  :   -83.1391364 Eh     change       -0.5424037E-05 Eh
 * total energy  :   -83.1391410 Eh     change       -0.4558617E-05 Eh
   *** GEOMETRY OPTIMIZATION CONVERGED AFTER 85 ITERATIONS ***

 final structure:
================
43
 xtb: 6.5.1 (579679a)
C           -5.09036831771558        1.62395288860721       -2.67249187401119
O           -4.07212357345387        1.04079464901551       -1.84840354980691
C           -4.22982269476857        1.15726877155078       -0.54023338418121
O           -5.18459691892607        1.71365127290439       -0.02703540182958
C           -3.13426654290836        0.55437916087307        0.25602831290590
N           -2.11155023414400       -0.04745757713838       -0.43473774490567
C           -1.13816811201933       -0.56963467395122        0.22499135497757
C           -0.03492894678763       -1.29075801714775       -0.51716171874322
C           -0.14036904572240       -2.79353407133604       -0.23320567013349
C           -0.11505570458496       -0.98646414321142       -2.01274913047150
N            1.25185884075441       -0.77236582706667        0.01857289875339
C            2.41206888686891       -1.26041526730648       -0.37753525871764
C            4.22153263298536       -1.57432501417271        1.32847455265125
O            2.65265942213705       -2.16253563288101       -1.12969908330675
C            3.66172880279611       -0.54419696316993        0.34760769028467
N            4.54723649815847       -0.12808961403879       -0.65981016520635
N            4.65707106265459        1.13400841979452       -0.64566688086663
C            3.88130379193856        1.60849832488167        0.37353635068169
C            3.72687911554177        3.01375588031122        0.73184049953640
O            3.27833481267279        0.64847865655760        0.98466576081798
N           -1.08542467404129       -0.55520090911184        1.58935332021738
C           -2.05389405727599        0.01678585196120        2.40239178299963
O           -1.94614878050580       -0.00361621049268        3.61182413833144
C           -3.15495251346664        0.60888291023776        1.62963254339530
O           -4.12394820543437        1.17892654524008        2.33733367586599
H           -5.15001339393988        2.69789521959908       -2.48281615105679
H           -6.05603151092138        1.16176655294580       -2.45537924634573
H           -4.79868991129272        1.43441594183847       -3.70335294193243
H            0.59482643696045       -3.34344967783911       -0.81727576615052
H            0.02906585958926       -2.98583445383325        0.82414516387112
H           -1.13725073418222       -3.13881580601014       -0.50407939303003
H            0.67435992573994       -1.51199810953800       -2.54643859676996
H           -0.01408392214822        0.08446948952894       -2.17902991392653
H           -1.08322798282783       -1.31149561271606       -2.39073389133325
H            1.22622754222412        0.00909812850512        0.65076087277143
H            3.45774029564334       -1.81862950385222        2.06252465059434
H            5.08831270284621       -1.14698476833059        1.82826398243630
H            4.50515795801046       -2.46576693332843        0.77197889709831
H            3.25471711204348        3.54470965611786       -0.09915965929865
H            4.71427311674005        3.46057540024105        0.86810247491914
H            3.12674635110174        3.12280979447644        1.63168120962321
H           -0.29984193666769       -0.96735745509403        2.06651692325754
H           -4.80734245368190        1.56380672638910        1.73677336604166

          :  Hamiltonian                  GFN1-xTB          :
         :: total energy             -83.139140979770 Eh    ::
         :: gradient norm              0.000551062096 Eh/a0 ::
         :: HOMO-LUMO gap              0.358444785469 eV    ::
         :: SCC energy               -83.932399658998 Eh    ::
         :: -> Gsolv                  -0.123583277030 Eh    ::
         :: repulsion energy           0.820024575804 Eh    ::

    * Orbital Energies and Occupations

         #    Occupation            Energy/Eh            Energy/eV
      -------------------------------------------------------------
         1        2.0000           -0.9372098             -25.5028
       ...           ...                  ...                  ...
        55        2.0000           -0.5331143             -14.5068
        56        2.0000           -0.5254553             -14.2984
        57        2.0000           -0.5218214             -14.1995
        58        2.0000           -0.5202416             -14.1565
        59        2.0000           -0.5157153             -14.0333
        60        2.0000           -0.5056344             -13.7590
        61        2.0000           -0.5031987             -13.6927
        62        2.0000           -0.4982689             -13.5586
        63        2.0000           -0.4978185             -13.5463
        64        2.0000           -0.4946596             -13.4604
        65        2.0000           -0.4722758             -12.8513
        66        2.0000           -0.4579611             -12.4618
        67        1.9981           -0.4412360             -12.0066 (HOMO)
        68        0.0019           -0.4280634             -11.6482 (LUMO)
        69                         -0.3350585              -9.1174
        70                         -0.3312205              -9.0130
        71                         -0.3021134              -8.2209
        72                         -0.2976992              -8.1008
        73                         -0.2508835              -6.8269
        74                         -0.1777277              -4.8362
        75                         -0.1699012              -4.6232
        76                         -0.1598847              -4.3507
        77                         -0.1462340              -3.9792
        78                         -0.1408083              -3.8316
       ...                                ...                  ...
       136                          0.7240596              19.7027
      -------------------------------------------------------------
                  HL-Gap            0.0131726 Eh            0.3584 eV

Wiberg/Mayer (AO) data.
largest (>0.10) Wiberg bond orders for each atom

     #   Z sym  total        # sym  WBO       # sym  WBO       # sym  WBO
 ---------------------------------------------------------------------------
     1   6 C    3.862 --    28 H    0.986    26 H    0.979    27 H    0.979
                             2 O    0.888
     2   8 O    2.219 --     3 C    1.141     1 C    0.888     4 O    0.131
     3   6 C    3.851 --     4 O    1.608     2 O    1.141     5 C    1.017
     4   8 O    1.948 --     3 C    1.608     2 O    0.131
     5   6 C    3.956 --    24 C    1.483     6 N    1.172     3 C    1.017
     6   7 N    3.026 --     7 C    1.598     5 C    1.172
     7   6 C    3.931 --     6 N    1.598    21 N    1.166     8 C    0.978
     8   6 C    3.907 --    10 C    0.995     9 C    0.981     7 C    0.978
                            11 N    0.876
     9   6 C    3.983 --    30 H    0.983     8 C    0.981    31 H    0.981
                            29 H    0.977
    10   6 C    3.985 --     8 C    0.995    33 H    0.984    32 H    0.982
                            34 H    0.980
    11   7 N    3.376 --    12 C    1.351    35 H    0.881     8 C    0.876
                            14 O    0.180
    12   6 C    3.908 --    14 O    1.667    11 N    1.351    15 C    0.741
    13   6 C    3.947 --    36 H    0.979    38 H    0.975    37 H    0.974
                            15 C    0.914
    14   8 O    2.056 --    12 C    1.667    11 N    0.180
    15   6 C    3.839 --    16 N    1.112    13 C    0.914    20 O    0.907
                            12 C    0.741
    16   7 N    2.997 --    17 N    1.627    15 C    1.112
    17   7 N    3.015 --    16 N    1.627    18 C    1.220
    18   6 C    3.802 --    20 O    1.268    17 N    1.220    19 C    1.079
    19   6 C    3.963 --    18 C    1.079    41 H    0.972    40 H    0.928
                            39 H    0.917
    20   8 O    2.370 --    18 C    1.268    15 C    0.907
    21   7 N    3.452 --     7 C    1.166    22 C    1.107    42 H    0.884
                            23 O    0.135
    22   6 C    3.904 --    23 O    1.621    21 N    1.107    24 C    1.048
    23   8 O    1.916 --    22 C    1.621    21 N    0.135
    24   6 C    3.916 --     5 C    1.483    25 O    1.142    22 C    1.048
    25   8 O    2.104 --    24 C    1.142    43 H    0.769
    26   1 H    1.005 --     1 C    0.979
    27   1 H    1.005 --     1 C    0.979
    28   1 H    1.010 --     1 C    0.986
    29   1 H    1.002 --     9 C    0.977
    30   1 H    0.998 --     9 C    0.983
    31   1 H    0.997 --     9 C    0.981
    32   1 H    1.001 --    10 C    0.982
    33   1 H    1.004 --    10 C    0.984
    34   1 H    1.006 --    10 C    0.980
    35   1 H    0.926 --    11 N    0.881
    36   1 H    0.991 --    13 C    0.979
    37   1 H    0.989 --    13 C    0.974
    38   1 H    0.993 --    13 C    0.975
    39   1 H    0.977 --    19 C    0.917
    40   1 H    0.979 --    19 C    0.928
    41   1 H    0.985 --    19 C    0.972
    42   1 H    0.925 --    21 N    0.884
    43   1 H    0.847 --    25 O    0.769
 ---------------------------------------------------------------------------

           -------------------------------------------------
          | TOTAL ENERGY              -83.139140979770 Eh   |
          | GRADIENT NORM               0.000551062096 Eh/α |
          | HOMO-LUMO GAP               0.358444785469 eV   |
           -------------------------------------------------

 * finished run on 2023/06/20 at 15:32:55.885
