   * xtb version 6.5.1 (579679a) compiled by 'ehlert@majestix' on 2022-07-11
          program call               : /lustre/hpc/kemi/ree/PhD/git/ReactivityQM/dep/xtb-6.5.1/bin/xtb --gfn 1 /lustre/hpc/kemi/ree/PhD/git/ReactivityQM/calculations/RaltegravirCLI/reac02prodE08/conf12/RaltegravirCLI_reac02prodE08_conf12_gfn1.xyz --opt --vfukui --chrg -1 --uhf 0 --alpb DMSO

   ID    Z sym.   atoms
    1    6 C      1-5, 7, 9, 11-14, 17, 18, 20, 22-24
    2    7 N      6, 10, 15, 16
    3    8 O      8, 19, 21
    4    9 F      25
    5    1 H      26-47

      * Solvation model:               ALPB
        Solvent                        DMSO
        Solvent mass                       7.8130E+01 g/mol
          :  Hamiltonian                  GFN1-xTB          :
 * total energy  :   -80.1723069 Eh     change       -0.8500791E-09 Eh
 * total energy  :   -80.1816600 Eh     change       -0.9353083E-02 Eh
 * total energy  :   -80.1841464 Eh     change       -0.2486404E-02 Eh
 * total energy  :   -80.1846278 Eh     change       -0.4814575E-03 Eh
 * total energy  :   -80.1850984 Eh     change       -0.4705219E-03 Eh
 * total energy  :   -80.1853604 Eh     change       -0.2620369E-03 Eh
 * total energy  :   -80.1855873 Eh     change       -0.2269185E-03 Eh
 * total energy  :   -80.1857349 Eh     change       -0.1475915E-03 Eh
 * total energy  :   -80.1858471 Eh     change       -0.1122137E-03 Eh
 * total energy  :   -80.1859409 Eh     change       -0.9381903E-04 Eh
 * total energy  :   -80.1864659 Eh     change       -0.1402890E-04 Eh
 * total energy  :   -80.1864794 Eh     change       -0.1351026E-04 Eh
 * total energy  :   -80.1864910 Eh     change       -0.1157584E-04 Eh
 * total energy  :   -80.1865010 Eh     change       -0.9998084E-05 Eh
 * total energy  :   -80.1865096 Eh     change       -0.8584849E-05 Eh
 * total energy  :   -80.1865168 Eh     change       -0.7215059E-05 Eh
 * total energy  :   -80.1865227 Eh     change       -0.5894514E-05 Eh
 * total energy  :   -80.1865281 Eh     change       -0.5442225E-05 Eh
 * total energy  :   -80.1865303 Eh     change       -0.2130073E-05 Eh
   *** GEOMETRY OPTIMIZATION CONVERGED AFTER 44 ITERATIONS ***

 final structure:
================
47
 xtb: 6.5.1 (579679a)
C            6.72410764388874        1.19928014919784        1.26093796792415
C            5.60972397517093        0.91871146868609        0.21013373640113
C            4.28926987261816        0.61509116305368        0.88360031146279
C            3.71784259324163       -0.62966233327490        0.88064675034844
C            2.42684980516244       -0.82972737426723        1.64978929241199
N            1.30472417318513       -0.26351715392322        0.89881119321186
C            0.08507588472642       -0.83764811812517        0.88949891372060
O           -0.14659349092594       -1.91397665360842        1.44689951064946
C           -0.97900600741540       -0.09340399271167        0.15749954471266
N           -2.25342262529563       -0.51539084532397        0.43361968806842
C           -3.29310646614983        0.02873071666190       -0.10908420936475
C           -4.64196324829338       -0.55323236751907        0.30165652890460
C           -5.09367546905045       -1.57504951447701       -0.75265079411715
C           -4.48833523660065       -1.26343307993670        1.65794487418327
N           -5.64969618641795        0.49909991000369        0.41368623394114
N           -3.18546240209104        1.04005769667546       -1.04065832940982
C           -4.33222690781021        1.67255808725676       -1.68670302893290
C           -1.93384633740041        1.54747592090096       -1.39048528169506
O           -1.80478483144811        2.46698605710266       -2.21224532272008
C           -0.81019527524810        0.93439951966882       -0.74609943167355
O            0.40575835886695        1.43257075974934       -1.10940142412484
C            4.24642556696703       -1.70671719652764        0.14356523249447
C            5.38928217455470       -1.46420395523603       -0.65893796093628
C            5.97372606747732       -0.24839974827250       -0.65564672075713
F            7.05113119453978       -0.01610531346162       -1.48615275711667
H            7.67142925419969        1.40304550745216        0.76071276014176
H            6.45266176942448        2.06215002143913        1.86874797648836
H            6.84715610362534        0.33533331386104        1.91452931149078
H            5.53014258226080        1.83406193354305       -0.40537745363173
H            3.83760061890353        1.43066675088003        1.43948018838681
H            2.22069400627775       -1.89277515744606        1.81690996543671
H            2.48350869747604       -0.33413940809688        2.62919861320851
H            1.43881659018304        0.66317889711481        0.52673999578441
H           -4.32469508039236       -2.33579188906308       -0.88639158616393
H           -6.01273099234369       -2.05842758459330       -0.42420520321226
H           -5.28162784725099       -1.09462637044744       -1.71121042180819
H           -3.79474234481703       -2.10006449932701        1.57490954297198
H           -4.10909218725868       -0.56691505223780        2.40482736448298
H           -5.45841373819914       -1.63497513503257        1.98279717326556
H           -6.56529698679189        0.07831144329841        0.47371111127256
H           -5.50181377197948        1.02522976285681        1.26516446852399
H           -5.05791339181338        0.92476948273946       -1.99270689410198
H           -4.80938993307026        2.37173465910499       -1.00049537500631
H           -3.97420760131927        2.21242471401434       -2.56398843435712
H            0.24483990206790        2.15972550557379       -1.73801026182591
H            3.77477257483369       -2.68123660808758        0.14701551609670
H            5.77669594973091       -2.24617408983373       -1.30489187503233

          :  Hamiltonian                  GFN1-xTB          :
         :: total energy             -80.186530259760 Eh    ::
         :: gradient norm              0.000201655454 Eh/a0 ::
         :: HOMO-LUMO gap              0.098097684771 eV    ::
         :: SCC energy               -81.044031871388 Eh    ::
         :: -> Gsolv                  -0.104619386948 Eh    ::
         :: repulsion energy           0.886672739171 Eh    ::

    * Orbital Energies and Occupations

         #    Occupation            Energy/Eh            Energy/eV
      -------------------------------------------------------------
         1        2.0000           -0.8039184             -21.8757
       ...           ...                  ...                  ...
        56        2.0000           -0.4574924             -12.4490
        57        2.0000           -0.4446115             -12.0985
        58        2.0000           -0.4420373             -12.0284
        59        2.0000           -0.4350793             -11.8391
        60        2.0000           -0.4293148             -11.6822
        61        2.0000           -0.4251277             -11.5683
        62        2.0000           -0.4216085             -11.4725
        63        2.0000           -0.4129564             -11.2371
        64        2.0000           -0.4064936             -11.0613
        65        2.0000           -0.4043002             -11.0016
        66        2.0000           -0.3968379             -10.7985
        67        2.0000           -0.3844967             -10.4627
        68        1.7392           -0.2942795              -8.0078 (HOMO)
        69        0.2608           -0.2906744              -7.9097 (LUMO)
        70                         -0.2524458              -6.8694
        71                         -0.2030817              -5.5261
        72                         -0.2004708              -5.4551
        73                         -0.1315569              -3.5798
        74                         -0.1285455              -3.4979
        75                         -0.1236631              -3.3650
        76                         -0.1166307              -3.1737
        77                         -0.1105254              -3.0076
        78                         -0.0945149              -2.5719
        79                         -0.0934407              -2.5427
       ...                                ...                  ...
       144                          0.7099139              19.3177
      -------------------------------------------------------------
                  HL-Gap            0.0036050 Eh            0.0981 eV

Wiberg/Mayer (AO) data.
largest (>0.10) Wiberg bond orders for each atom

     #   Z sym  total        # sym  WBO       # sym  WBO       # sym  WBO
 ---------------------------------------------------------------------------
     1   6 C    3.971 --    28 H    0.989    27 H    0.988    26 H    0.987
                             2 C    0.964
     2   6 C    3.992 --    24 C    1.007     3 C    1.006     1 C    0.964
                            29 H    0.961
     3   6 C    3.813 --     4 C    1.581     2 C    1.006    30 H    0.975
     4   6 C    3.983 --     3 C    1.581    22 C    1.318     5 C    0.990
     5   6 C    3.941 --     4 C    0.990    31 H    0.976    32 H    0.972
                             6 N    0.932
     6   7 N    3.324 --     7 C    1.259     5 C    0.932    33 H    0.900
                             8 O    0.165
     7   6 C    3.881 --     8 O    1.531     6 N    1.259     9 C    1.016
     8   8 O    1.809 --     7 C    1.531     6 N    0.165
     9   6 C    3.867 --    20 C    1.427    10 N    1.188     7 C    1.016
    10   7 N    3.028 --    11 C    1.577     9 C    1.188
    11   6 C    3.893 --    10 N    1.577    16 N    1.147    12 C    0.976
    12   6 C    3.966 --    14 C    0.990    13 C    0.984    15 N    0.982
                            11 C    0.976
    13   6 C    3.993 --    34 H    0.986    12 C    0.984    35 H    0.984
                            36 H    0.980
    14   6 C    3.995 --    12 C    0.990    39 H    0.987    38 H    0.985
                            37 H    0.983
    15   7 N    2.977 --    12 C    0.982    41 H    0.943    40 H    0.942
    16   7 N    3.423 --    11 C    1.147    18 C    1.093    17 C    0.937
                            19 O    0.116
    17   6 C    3.934 --    42 H    0.979    43 H    0.977    44 H    0.976
                            16 N    0.937
    18   6 C    3.872 --    19 O    1.490    20 C    1.151    16 N    1.093
    19   8 O    1.823 --    18 C    1.490    16 N    0.116
    20   6 C    3.830 --     9 C    1.427    18 C    1.151    21 O    1.041
    21   8 O    2.021 --    20 C    1.041    45 H    0.816
    22   6 C    3.766 --     4 C    1.318    23 C    1.268    46 H    0.976
    23   6 C    3.989 --    24 C    1.628    22 C    1.268    47 H    0.971
    24   6 C    3.698 --    23 C    1.628     2 C    1.007    25 F    0.859
    25   9 F    0.966 --    24 C    0.859
    26   1 H    1.010 --     1 C    0.987
    27   1 H    1.010 --     1 C    0.988
    28   1 H    1.017 --     1 C    0.989
    29   1 H    1.007 --     2 C    0.961
    30   1 H    1.000 --     3 C    0.975
    31   1 H    1.019 --     5 C    0.976
    32   1 H    1.011 --     5 C    0.972
    33   1 H    0.964 --     6 N    0.900
    34   1 H    1.005 --    13 C    0.986
    35   1 H    1.001 --    13 C    0.984
    36   1 H    1.006 --    13 C    0.980
    37   1 H    1.017 --    14 C    0.983
    38   1 H    1.009 --    14 C    0.985
    39   1 H    1.005 --    14 C    0.987
    40   1 H    0.957 --    15 N    0.942
    41   1 H    0.959 --    15 N    0.943
    42   1 H    1.021 --    17 C    0.979
    43   1 H    1.020 --    17 C    0.977
    44   1 H    1.013 --    17 C    0.976
    45   1 H    0.862 --    21 O    0.816
    46   1 H    1.003 --    22 C    0.976
    47   1 H    1.006 --    23 C    0.971
 ---------------------------------------------------------------------------

           -------------------------------------------------
          | TOTAL ENERGY              -80.186530259760 Eh   |
          | GRADIENT NORM               0.000201655454 Eh/α |
          | HOMO-LUMO GAP               0.098097684771 eV   |
           -------------------------------------------------

 * finished run on 2023/06/20 at 15:07:08.166
