   * xtb version 6.5.1 (579679a) compiled by 'ehlert@majestix' on 2022-07-11
          program call               : /lustre/hpc/kemi/ree/PhD/git/ReactivityQM/dep/xtb-6.5.1/bin/xtb --gfn 1 /lustre/hpc/kemi/ree/PhD/git/ReactivityQM/calculations/R01/reac02/conf06/R01_reac02_conf06_gfn1.xyz --opt --vfukui --chrg 0 --uhf 0 --alpb DMSO

   ID    Z sym.   atoms
    1    6 C      1, 3, 5, 7-10, 13, 15
    2    8 O      2, 4, 14, 16
    3    7 N      6, 11, 12
    4    1 H      17-29

      * Solvation model:               ALPB
        Solvent                        DMSO
        Solvent mass                       7.8130E+01 g/mol
          :  Hamiltonian                  GFN1-xTB          :
 * total energy  :   -54.5054852 Eh     change       -0.5805134E-11 Eh
 * total energy  :   -54.5117473 Eh     change       -0.6262087E-02 Eh
 * total energy  :   -54.5134834 Eh     change       -0.1736168E-02 Eh
 * total energy  :   -54.5136957 Eh     change       -0.2122381E-03 Eh
 * total energy  :   -54.5138184 Eh     change       -0.1227624E-03 Eh
 * total energy  :   -54.5138561 Eh     change       -0.3761380E-04 Eh
 * total energy  :   -54.5138921 Eh     change       -0.3600479E-04 Eh
 * total energy  :   -54.5139100 Eh     change       -0.1797071E-04 Eh
 * total energy  :   -54.5139206 Eh     change       -0.1055934E-04 Eh
 * total energy  :   -54.5139241 Eh     change       -0.3509683E-05 Eh
   *** GEOMETRY OPTIMIZATION CONVERGED AFTER 10 ITERATIONS ***

 final structure:
================
29
 xtb: 6.5.1 (579679a)
C            3.93610817491262        2.06060737699648        0.63269781985531
O            2.70376612430155        1.37345129702167        0.39511487615535
C            2.79241634720573        0.08778665278865        0.08330653578646
O            3.85705385266889       -0.49906875332281       -0.01349770739774
C            1.48478976316247       -0.56966538551879       -0.14145533457945
N            0.36034915981578        0.19957017005852        0.01904061432686
C           -0.79845070115692       -0.33555087466543       -0.16978631281090
C           -2.05980236837998        0.47754326066035        0.02450420174817
C           -2.90394092555396        0.46772833411443       -1.25656872490679
C           -2.85684041072961       -0.10722716824549        1.20622792939975
N           -1.66613905379746        1.85220326513082        0.29914662582447
N           -0.93370201641966       -1.64770382943447       -0.52754900640340
C            0.11605355818037       -2.52483729986542       -0.71845189194841
O           -0.08404770100537       -3.68389858774529       -1.04021207405659
C            1.42183416152594       -1.89614913464183       -0.49474334507142
O            2.48890592357727       -2.68194612571759       -0.65704558038536
H            3.67835117006271        3.09367951166797        0.85696441851745
H            4.57113937060824        2.00984789507014       -0.25477346372029
H            4.45892408640737        1.60675174966538        1.47762951560846
H           -3.21262634383156       -0.54408977032982       -1.51281722200344
H           -2.32724471046340        0.88627010376453       -2.08100835211996
H           -3.79514991241488        1.07484554603624       -1.10675643850896
H           -3.75559741256036        0.48518620151032        1.36660754669212
H           -2.25234809807593       -0.08118301012757        2.11171484710759
H           -3.14667562153637       -1.13673457295656        1.00227641641509
H           -2.49139916526879        2.38572926216307        0.53478193558358
H           -1.04761317435852        1.86403326764721        1.10256539326961
H           -1.85438345962445       -2.03832709741071       -0.66150028763702
H            3.31627138274451       -2.17885128431510       -0.47641193474243

          :  Hamiltonian                  GFN1-xTB          :
         :: total energy             -54.513924107253 Eh    ::
         :: gradient norm              0.000522575490 Eh/a0 ::
         :: HOMO-LUMO gap              2.366528948305 eV    ::
         :: SCC energy               -55.038141291499 Eh    ::
         :: -> Gsolv                  -0.040862952016 Eh    ::
         :: repulsion energy           0.540145814781 Eh    ::

    * Orbital Energies and Occupations

         #    Occupation            Energy/Eh            Energy/eV
      -------------------------------------------------------------
         1        2.0000           -0.8441234             -22.9698
       ...           ...                  ...                  ...
        32        2.0000           -0.5221131             -14.2074
        33        2.0000           -0.5168498             -14.0642
        34        2.0000           -0.5144905             -14.0000
        35        2.0000           -0.5021559             -13.6644
        36        2.0000           -0.5008145             -13.6279
        37        2.0000           -0.4972825             -13.5317
        38        2.0000           -0.4901959             -13.3389
        39        2.0000           -0.4870279             -13.2527
        40        2.0000           -0.4833517             -13.1527
        41        2.0000           -0.4565947             -12.4246
        42        2.0000           -0.4435556             -12.0698
        43        2.0000           -0.4274600             -11.6318
        44        2.0000           -0.4114862             -11.1971 (HOMO)
        45                         -0.3245178              -8.8306 (LUMO)
        46                         -0.2786740              -7.5831
        47                         -0.2412846              -6.5657
        48                         -0.1571990              -4.2776
        49                         -0.1391388              -3.7862
        50                         -0.1375528              -3.7430
        51                         -0.1231661              -3.3515
        52                         -0.1139252              -3.1001
        53                         -0.0879887              -2.3943
        54                         -0.0817699              -2.2251
        55                         -0.0755704              -2.0564
       ...                                ...                  ...
        90                          0.7211764              19.6242
      -------------------------------------------------------------
                  HL-Gap            0.0869683 Eh            2.3665 eV

Wiberg/Mayer (AO) data.
largest (>0.10) Wiberg bond orders for each atom

     #   Z sym  total        # sym  WBO       # sym  WBO       # sym  WBO
 ---------------------------------------------------------------------------
     1   6 C    3.868 --    17 H    0.986    18 H    0.979    19 H    0.979
                             2 O    0.894
     2   8 O    2.216 --     3 C    1.133     1 C    0.894     4 O    0.129
     3   6 C    3.847 --     4 O    1.604     2 O    1.133     5 C    1.021
     4   8 O    1.941 --     3 C    1.604     2 O    0.129
     5   6 C    3.966 --    15 C    1.486     6 N    1.179     3 C    1.021
     6   7 N    3.024 --     7 C    1.586     5 C    1.179
     7   6 C    3.920 --     6 N    1.586    12 N    1.162     8 C    0.982
     8   6 C    3.970 --    11 N    0.995     9 C    0.985     7 C    0.982
                            10 C    0.972
     9   6 C    3.994 --     8 C    0.985    21 H    0.985    20 H    0.984
                            22 H    0.983
    10   6 C    3.993 --    24 H    0.985    23 H    0.983    25 H    0.983
                             8 C    0.972
    11   7 N    2.953 --     8 C    0.995    26 H    0.945    27 H    0.941
    12   7 N    3.457 --     7 C    1.162    13 C    1.126    28 H    0.887
                            14 O    0.136
    13   6 C    3.910 --    14 O    1.595    12 N    1.126    15 C    1.058
    14   8 O    1.894 --    13 C    1.595    12 N    0.136
    15   6 C    3.921 --     5 C    1.486    16 O    1.121    13 C    1.058
    16   8 O    2.089 --    15 C    1.121    29 H    0.778
    17   1 H    1.010 --     1 C    0.986
    18   1 H    1.007 --     1 C    0.979
    19   1 H    1.006 --     1 C    0.979
    20   1 H    1.001 --     9 C    0.984
    21   1 H    1.006 --     9 C    0.985
    22   1 H    1.000 --     9 C    0.983
    23   1 H    1.001 --    10 C    0.983
    24   1 H    1.003 --    10 C    0.985
    25   1 H    1.000 --    10 C    0.983
    26   1 H    0.959 --    11 N    0.945
    27   1 H    0.970 --    11 N    0.941
    28   1 H    0.935 --    12 N    0.887
    29   1 H    0.854 --    16 O    0.778
 ---------------------------------------------------------------------------

           -------------------------------------------------
          | TOTAL ENERGY              -54.513924107253 Eh   |
          | GRADIENT NORM               0.000522575490 Eh/α |
          | HOMO-LUMO GAP               2.366528948305 eV   |
           -------------------------------------------------

 * finished run on 2023/06/20 at 14:51:57.730
