   * xtb version 6.5.1 (579679a) compiled by 'ehlert@majestix' on 2022-07-11
          program call               : /lustre/hpc/kemi/ree/PhD/git/ReactivityQM/dep/xtb-6.5.1/bin/xtb --gfn 1 /lustre/hpc/kemi/ree/PhD/git/ReactivityQM/calculations/R02oxygendeprot/reac01prodN03/conf19/R02oxygendeprot_reac01prodN03_conf19_gfn1.xyz --opt --vfukui --chrg 0 --uhf 0 --alpb DMSO

   ID    Z sym.   atoms
    1    6 C      1, 3, 5, 6, 8-11, 13, 15, 18, 19, 22, 24
    2    8 O      2, 4, 14, 20, 23, 25
    3    7 N      7, 12, 16, 17, 21
    4    1 H      26-42

      * Solvation model:               ALPB
        Solvent                        DMSO
        Solvent mass                       7.8130E+01 g/mol
          :  Hamiltonian                  GFN1-xTB          :
 * total energy  :   -82.9825636 Eh     change       -0.7347012E-11 Eh
 * total energy  :   -82.9945399 Eh     change       -0.1197624E-01 Eh
 * total energy  :   -82.9990900 Eh     change       -0.4550176E-02 Eh
 * total energy  :   -82.9999699 Eh     change       -0.8798765E-03 Eh
 * total energy  :   -83.0004188 Eh     change       -0.4488993E-03 Eh
 * total energy  :   -83.0006004 Eh     change       -0.1815338E-03 Eh
 * total energy  :   -83.0007451 Eh     change       -0.1447914E-03 Eh
 * total energy  :   -83.0008748 Eh     change       -0.1296781E-03 Eh
 * total energy  :   -83.0009964 Eh     change       -0.1216193E-03 Eh
 * total energy  :   -83.0011056 Eh     change       -0.1091444E-03 Eh
 * total energy  :   -83.0015677 Eh     change       -0.1528372E-04 Eh
 * total energy  :   -83.0015755 Eh     change       -0.7813034E-05 Eh
 * total energy  :   -83.0015863 Eh     change       -0.1080668E-04 Eh
 * total energy  :   -83.0015962 Eh     change       -0.9938299E-05 Eh
 * total energy  :   -83.0016035 Eh     change       -0.7312666E-05 Eh
 * total energy  :   -83.0016107 Eh     change       -0.7144375E-05 Eh
 * total energy  :   -83.0016181 Eh     change       -0.7422342E-05 Eh
 * total energy  :   -83.0016242 Eh     change       -0.6081678E-05 Eh
 * total energy  :   -83.0016288 Eh     change       -0.4651433E-05 Eh
   *** GEOMETRY OPTIMIZATION CONVERGED AFTER 33 ITERATIONS ***

 final structure:
================
42
 xtb: 6.5.1 (579679a)
C           -6.03162416373974       -0.83275940946364       -1.07204592145281
O           -5.08432117165626       -0.15011439821159       -0.23450393545096
C           -3.81221755146008       -0.43154749409000       -0.41049010437206
O           -3.37492417476897       -1.22267087676069       -1.20280923360450
C           -2.90043539950858        0.36866814906339        0.56707709898317
C           -3.58173724314157        1.64059410223828        1.07126720601500
N           -1.72637711299886        0.71306204459040       -0.20052588514884
C           -0.72757097327872       -0.06410843482944       -0.24054268654063
C            0.42647171745073        0.23082112815149       -1.17449107343873
C            0.34213071809501       -0.76434862801292       -2.34172676912773
C            0.35065404274618        1.67580548817814       -1.67438366655695
N            1.66385640382471        0.02801508222233       -0.41409257945572
C            2.89435519071257        0.14737541403435       -0.96806861575759
O            3.12836242561482        0.27279504532313       -2.15491111225743
C            3.94651520351695        0.09195047735607        0.07817810918780
N            3.74707687104837        0.00905893996249        1.35959893111310
N            4.97459816579060        0.01082633166258        1.94913170847958
C            5.84576146845177        0.09731425351393        0.98917492781514
C            7.31958817275374        0.14124598599558        1.10896766834039
O            5.25776403897125        0.15266316681969       -0.21471388859875
N           -0.62181480237976       -1.23799662008352        0.49672962631681
C           -1.49200847298695       -1.60511913380668        1.47798810398762
O           -1.35335073451210       -2.61301894020120        2.13242978793795
C           -2.64083088498122       -0.61206994240532        1.69769575981888
O           -3.31236520200220       -0.64616161870198        2.69499842478282
H           -5.75648046032544       -0.70588539157392       -2.12042830349348
H           -6.99927660231028       -0.37900374087828       -0.87173346739000
H           -6.04622534550363       -1.89503696098067       -0.82167139245162
H           -2.87773698656548        2.20448390431397        1.68029791324351
H           -4.45101120624089        1.38332392033029        1.67319555998266
H           -3.89151641529562        2.25101166962534        0.22643348841863
H           -0.65288639437149       -0.71270275622523       -2.78217455603158
H            0.52114873832652       -1.77704740877869       -1.98539873618972
H            1.08140362182606       -0.51868878690410       -3.10115149233355
H            1.17374050405606        1.87421239551244       -2.35808594940845
H            0.40569590039612        2.36497860420148       -0.83356235027421
H           -0.59305752537414        1.82987669297337       -2.19458033437562
H            1.60725790956098        0.05762116427029        0.59339726192021
H            7.69807960638231        1.07671349470863        0.69680812942854
H            7.60356612800360        0.06334360932017        2.15554413345391
H            7.76458361824203       -0.67896923378203        0.54612835907065
H            0.17516337762676       -1.83850928867810        0.34773985541465

          :  Hamiltonian                  GFN1-xTB          :
         :: total energy             -83.001628834746 Eh    ::
         :: gradient norm              0.000378287516 Eh/a0 ::
         :: HOMO-LUMO gap              2.402686770349 eV    ::
         :: SCC energy               -83.789665335401 Eh    ::
         :: -> Gsolv                  -0.050903827235 Eh    ::
         :: repulsion energy           0.814535409331 Eh    ::

    * Orbital Energies and Occupations

         #    Occupation            Energy/Eh            Energy/eV
      -------------------------------------------------------------
         1        2.0000           -0.8652442             -23.5445
       ...           ...                  ...                  ...
        55        2.0000           -0.5125999             -13.9486
        56        2.0000           -0.5077737             -13.8172
        57        2.0000           -0.5075712             -13.8117
        58        2.0000           -0.5027648             -13.6809
        59        2.0000           -0.4932602             -13.4223
        60        2.0000           -0.4845958             -13.1865
        61        2.0000           -0.4729421             -12.8694
        62        2.0000           -0.4657039             -12.6724
        63        2.0000           -0.4630069             -12.5991
        64        2.0000           -0.4606761             -12.5356
        65        2.0000           -0.4541528             -12.3581
        66        2.0000           -0.4506611             -12.2631
        67        2.0000           -0.4423433             -12.0368 (HOMO)
        68                         -0.3540462              -9.6341 (LUMO)
        69                         -0.3137454              -8.5374
        70                         -0.2988978              -8.1334
        71                         -0.2712326              -7.3806
        72                         -0.2583096              -7.0290
        73                         -0.2269607              -6.1759
        74                         -0.2016466              -5.4871
        75                         -0.1477038              -4.0192
        76                         -0.1426338              -3.8813
        77                         -0.1307124              -3.5569
        78                         -0.1265045              -3.4424
       ...                                ...                  ...
       134                          0.7569204              20.5969
      -------------------------------------------------------------
                  HL-Gap            0.0882971 Eh            2.4027 eV

Wiberg/Mayer (AO) data.
largest (>0.10) Wiberg bond orders for each atom

     #   Z sym  total        # sym  WBO       # sym  WBO       # sym  WBO
 ---------------------------------------------------------------------------
     1   6 C    3.852 --    27 H    0.985    26 H    0.980    28 H    0.979
                             2 O    0.874
     2   8 O    2.232 --     3 C    1.159     1 C    0.874     4 O    0.140
     3   6 C    3.845 --     4 O    1.695     2 O    1.159     5 C    0.863
     4   8 O    1.965 --     3 C    1.695     2 O    0.140
     5   6 C    3.963 --     6 C    0.982     7 N    0.980    24 C    0.949
                             3 C    0.863
     6   6 C    3.985 --    31 H    0.985    29 H    0.983     5 C    0.982
                            30 H    0.982
     7   7 N    3.029 --     8 C    1.761     5 C    0.980
     8   6 C    3.926 --     7 N    1.761    21 N    1.065     9 C    0.978
     9   6 C    3.933 --    11 C    0.991     8 C    0.978    10 C    0.976
                            12 N    0.923
    10   6 C    3.988 --    32 H    0.984    33 H    0.984    34 H    0.977
                             9 C    0.976
    11   6 C    3.989 --     9 C    0.991    36 H    0.985    37 H    0.983
                            35 H    0.982
    12   7 N    3.326 --    13 C    1.234     9 C    0.923    38 H    0.895
                            14 O    0.173
    13   6 C    3.915 --    14 O    1.607    12 N    1.234    15 C    0.990
    14   8 O    1.920 --    13 C    1.607    12 N    0.173
    15   6 C    3.876 --    16 N    1.608    20 O    1.065    13 C    0.990
    16   7 N    3.018 --    15 C    1.608    17 N    1.202
    17   7 N    2.981 --    18 C    1.603    16 N    1.202
    18   6 C    3.870 --    17 N    1.603    20 O    1.084    19 C    1.032
    19   6 C    3.986 --    18 C    1.032    40 H    0.983    41 H    0.964
                            39 H    0.962
    20   8 O    2.332 --    18 C    1.084    15 C    1.065
    21   7 N    3.430 --    22 C    1.187     8 C    1.065    42 H    0.881
                            23 O    0.149
    22   6 C    3.893 --    23 O    1.674    21 N    1.187    24 C    0.906
    23   8 O    1.958 --    22 C    1.674    21 N    0.149
    24   6 C    3.847 --    25 O    1.812     5 C    0.949    22 C    0.906
    25   8 O    2.027 --    24 C    1.812
    26   1 H    1.004 --     1 C    0.980
    27   1 H    1.007 --     1 C    0.985
    28   1 H    1.003 --     1 C    0.979
    29   1 H    1.001 --     6 C    0.983
    30   1 H    1.008 --     6 C    0.982
    31   1 H    1.003 --     6 C    0.985
    32   1 H    1.003 --    10 C    0.984
    33   1 H    1.000 --    10 C    0.984
    34   1 H    1.010 --    10 C    0.977
    35   1 H    1.005 --    11 C    0.982
    36   1 H    1.004 --    11 C    0.985
    37   1 H    1.008 --    11 C    0.983
    38   1 H    0.952 --    12 N    0.895
    39   1 H    0.996 --    19 C    0.962
    40   1 H    0.998 --    19 C    0.983
    41   1 H    0.996 --    19 C    0.964
    42   1 H    0.927 --    21 N    0.881
 ---------------------------------------------------------------------------

           -------------------------------------------------
          | TOTAL ENERGY              -83.001628834746 Eh   |
          | GRADIENT NORM               0.000378287516 Eh/α |
          | HOMO-LUMO GAP               2.402686770349 eV   |
           -------------------------------------------------

 * finished run on 2023/06/21 at 17:19:14.212
