   * xtb version 6.5.1 (579679a) compiled by 'ehlert@majestix' on 2022-07-11
          program call               : /lustre/hpc/kemi/ree/PhD/git/ReactivityQM/dep/xtb-6.5.1/bin/xtb --gfn 1 /lustre/hpc/kemi/ree/PhD/git/ReactivityQM/calculations/R03/reac01prodN06/conf04/R03_reac01prodN06_conf04_gfn1.xyz --opt --vfukui --chrg 1 --uhf 0 --alpb DMSO

   ID    Z sym.   atoms
    1    6 C      1, 3-7, 9, 10
    2    9 F      2
    3    7 N      8
    4    1 H      11-21

      * Solvation model:               ALPB
        Solvent                        DMSO
        Solvent mass                       7.8130E+01 g/mol
          :  Hamiltonian                  GFN1-xTB          :
 * total energy  :   -30.7178142 Eh     change       -0.2646772E-11 Eh
 * total energy  :   -30.7292211 Eh     change       -0.1140695E-01 Eh
 * total energy  :   -30.7325771 Eh     change       -0.3356038E-02 Eh
 * total energy  :   -30.7329703 Eh     change       -0.3931731E-03 Eh
 * total energy  :   -30.7332018 Eh     change       -0.2314870E-03 Eh
 * total energy  :   -30.7334119 Eh     change       -0.2100443E-03 Eh
 * total energy  :   -30.7336260 Eh     change       -0.2141305E-03 Eh
 * total energy  :   -30.7338604 Eh     change       -0.2344210E-03 Eh
 * total energy  :   -30.7340273 Eh     change       -0.1668978E-03 Eh
 * total energy  :   -30.7341723 Eh     change       -0.1450426E-03 Eh
 * total energy  :   -30.7344883 Eh     change       -0.7136730E-04 Eh
 * total energy  :   -30.7345927 Eh     change       -0.1043641E-03 Eh
 * total energy  :   -30.7346221 Eh     change       -0.2939054E-04 Eh
 * total energy  :   -30.7346691 Eh     change       -0.4704647E-04 Eh
 * total energy  :   -30.7346875 Eh     change       -0.1840903E-04 Eh
 * total energy  :   -30.7347084 Eh     change       -0.2092779E-04 Eh
 * total energy  :   -30.7347149 Eh     change       -0.6479283E-05 Eh
 * total energy  :   -30.7347206 Eh     change       -0.5677415E-05 Eh
 * total energy  :   -30.7347248 Eh     change       -0.4194404E-05 Eh
   *** GEOMETRY OPTIMIZATION CONVERGED AFTER 22 ITERATIONS ***

 final structure:
================
21
 xtb: 6.5.1 (579679a)
C           -3.92728958494745       -0.06654286484021        0.18068311196006
F           -2.73952956387078       -0.30423421989167        0.95878652302678
C           -1.33954292273952       -0.21573247475671        0.51652030065253
C           -0.81438597890787       -1.33439996256291       -0.07703914297913
C            0.52383328478522       -1.25385377544478       -0.44449931339002
C            1.25999142022819       -0.09162628631526       -0.21130050958303
C            2.70545027700576       -0.01332605758500       -0.63031628577051
N            3.42171900595825        0.97767680890564        0.16517883500807
C            0.64821201199809        1.00674315450068        0.39326941679619
C           -0.68746808468751        0.96262875363004        0.77305370068483
H           -3.76104762667200       -0.54536117133000       -0.77959038616899
H           -4.02641649205704        1.01261213294615        0.10987194636431
H           -4.71492004726283       -0.53580145002701        0.76249870808476
H           -1.40347658084813       -2.22495741843445       -0.24246624072148
H            0.99089801111318       -2.11049914794205       -0.91494854978463
H            2.74068461585479        0.29785227564361       -1.68055944668068
H            3.16796338446367       -1.00773537308408       -0.55997630566658
H            4.32139564539507        1.14366442096856       -0.26371924476850
H            3.58730905414783        0.59798282777326        1.08774842125443
H            1.22772275208069        1.90536884515040        0.57230862866981
H           -1.18110058103393        1.79954098269044        1.24611683301301

          :  Hamiltonian                  GFN1-xTB          :
         :: total energy             -30.734724791145 Eh    ::
         :: gradient norm              0.000339721970 Eh/a0 ::
         :: HOMO-LUMO gap              2.896129244945 eV    ::
         :: SCC energy               -31.143644169496 Eh    ::
         :: -> Gsolv                  -0.082492795385 Eh    ::
         :: repulsion energy           0.418310621104 Eh    ::

    * Orbital Energies and Occupations

         #    Occupation            Energy/Eh            Energy/eV
      -------------------------------------------------------------
         1        2.0000           -1.0070588             -27.4035
       ...           ...                  ...                  ...
        15        2.0000           -0.5904036             -16.0657
        16        2.0000           -0.5824811             -15.8501
        17        2.0000           -0.5780449             -15.7294
        18        2.0000           -0.5727504             -15.5853
        19        2.0000           -0.5695067             -15.4971
        20        2.0000           -0.5585594             -15.1992
        21        2.0000           -0.5379706             -14.6389
        22        2.0000           -0.5261129             -14.3163
        23        2.0000           -0.5101603             -13.8822
        24        2.0000           -0.5036367             -13.7047
        25        2.0000           -0.4874453             -13.2641
        26        2.0000           -0.4758846             -12.9495
        27        2.0000           -0.4172710             -11.3545 (HOMO)
        28                         -0.3108402              -8.4584 (LUMO)
        29                         -0.3093038              -8.4166
        30                         -0.2583721              -7.0307
        31                         -0.1887814              -5.1370
        32                         -0.1809418              -4.9237
        33                         -0.1419428              -3.8625
        34                         -0.1405087              -3.8234
        35                         -0.1300094              -3.5377
        36                         -0.1298559              -3.5336
        37                         -0.1199948              -3.2652
        38                         -0.1159917              -3.1563
       ...                                ...                  ...
        62                          0.6147649              16.7286
      -------------------------------------------------------------
                  HL-Gap            0.1064308 Eh            2.8961 eV

Wiberg/Mayer (AO) data.
largest (>0.10) Wiberg bond orders for each atom

     #   Z sym  total        # sym  WBO       # sym  WBO       # sym  WBO
 ---------------------------------------------------------------------------
     1   6 C    3.679 --    11 H    0.980    12 H    0.979    13 H    0.974
                             2 F    0.718
     2   9 F    1.436 --     1 C    0.718     3 C    0.630
     3   6 C    3.685 --    10 C    1.430     4 C    1.430     2 F    0.630
     4   6 C    3.985 --     3 C    1.430     5 C    1.427    14 H    0.961
                             9 C    0.108
     5   6 C    3.988 --     4 C    1.427     6 C    1.411    15 H    0.966
                            10 C    0.108
     6   6 C    3.980 --     5 C    1.411     9 C    1.409     7 C    1.010
     7   6 C    3.980 --     6 C    1.010     8 N    1.002    17 H    0.967
                            16 H    0.956
     8   7 N    2.952 --     7 C    1.002    19 H    0.945    18 H    0.938
     9   6 C    3.986 --    10 C    1.426     6 C    1.409    20 H    0.962
                             4 C    0.108
    10   6 C    3.985 --     3 C    1.430     9 C    1.426    21 H    0.962
                             5 C    0.108
    11   1 H    0.994 --     1 C    0.980
    12   1 H    0.993 --     1 C    0.979
    13   1 H    0.992 --     1 C    0.974
    14   1 H    0.990 --     4 C    0.961
    15   1 H    0.994 --     5 C    0.966
    16   1 H    1.007 --     7 C    0.956
    17   1 H    1.000 --     7 C    0.967
    18   1 H    0.952 --     8 N    0.938
    19   1 H    0.956 --     8 N    0.945
    20   1 H    1.013 --     9 C    0.962
    21   1 H    0.991 --    10 C    0.962
 ---------------------------------------------------------------------------

           -------------------------------------------------
          | TOTAL ENERGY              -30.734724791145 Eh   |
          | GRADIENT NORM               0.000339721970 Eh/α |
          | HOMO-LUMO GAP               2.896129244945 eV   |
           -------------------------------------------------

 * finished run on 2023/06/20 at 15:14:58.182
