   * xtb version 6.5.1 (579679a) compiled by 'ehlert@majestix' on 2022-07-11
          program call               : /lustre/hpc/kemi/ree/PhD/git/ReactivityQM/dep/xtb-6.5.1/bin/xtb --gfn 1 /lustre/hpc/kemi/ree/PhD/git/ReactivityQM/calculations/RaltegravirCLI/reac01prodN05/conf06/RaltegravirCLI_reac01prodN05_conf06_gfn1.xyz --opt --vfukui --chrg 1 --uhf 0 --alpb DMSO

   ID    Z sym.   atoms
    1    6 C      1, 2, 5-7
    2    7 N      3, 4
    3    8 O      8, 10
    4   17 Cl     9
    5    1 H      11-16

      * Solvation model:               ALPB
        Solvent                        DMSO
        Solvent mass                       7.8130E+01 g/mol
          :  Hamiltonian                  GFN1-xTB          :
 * total energy  :   -33.3753220 Eh     change       -0.2025047E-11 Eh
 * total energy  :   -33.3835646 Eh     change       -0.8242587E-02 Eh
 * total energy  :   -33.3871204 Eh     change       -0.3555797E-02 Eh
 * total energy  :   -33.3874351 Eh     change       -0.3147168E-03 Eh
 * total energy  :   -33.3875529 Eh     change       -0.1177453E-03 Eh
 * total energy  :   -33.3875833 Eh     change       -0.3042817E-04 Eh
 * total energy  :   -33.3876481 Eh     change       -0.6474556E-04 Eh
 * total energy  :   -33.3877572 Eh     change       -0.1091151E-03 Eh
 * total energy  :   -33.3877104 Eh     change        0.4679793E-04 Eh
 * total energy  :   -33.3879114 Eh     change       -0.2010142E-03 Eh
 * total energy  :   -33.3920549 Eh     change       -0.1957912E-04 Eh
 * total energy  :   -33.3920617 Eh     change       -0.6748433E-05 Eh
 * total energy  :   -33.3920882 Eh     change       -0.2654241E-04 Eh
 * total energy  :   -33.3921015 Eh     change       -0.1331713E-04 Eh
 * total energy  :   -33.3921342 Eh     change       -0.3268813E-04 Eh
 * total energy  :   -33.3921464 Eh     change       -0.1218062E-04 Eh
 * total energy  :   -33.3921559 Eh     change       -0.9445406E-05 Eh
 * total energy  :   -33.3921703 Eh     change       -0.1443849E-04 Eh
 * total energy  :   -33.3921738 Eh     change       -0.3498961E-05 Eh
   *** GEOMETRY OPTIMIZATION CONVERGED AFTER 54 ITERATIONS ***

 final structure:
================
16
 xtb: 6.5.1 (579679a)
C            2.69128851945138       -0.16445067010247       -0.28945547948440
C            1.24553428932554       -0.12470252021746       -0.43662291694580
N            0.56034168731736       -0.25873141708889       -1.62304391602534
N           -0.67085827797067       -0.17806092298855       -1.36990802679083
C           -0.86588741708887        0.04664320376922        0.01458793259276
C           -1.76566993882072       -0.97006203635357        0.71792400512678
C           -1.57465756134027        1.47731148813645        0.12301761144954
O           -2.69445079377999        1.56653379223221       -0.24626873874666
Cl          -0.63048167614185        2.69915179988581        0.77098138944280
O            0.43558956564745        0.05257633133055        0.54220291709058
H            3.06476588515743       -1.11093481631451       -0.69025745084912
H            2.98294310925154       -0.04621962204049        0.75156139134447
H            3.13533287898751        0.62406075821636       -0.90364292348303
H           -1.33367309780207       -1.96086237815729        0.59802522156244
H           -2.75469571758224       -0.93091188697295        0.26592259631213
H           -1.82542245461166       -0.72134110333413        1.77497638740363

          :  Hamiltonian                  GFN1-xTB          :
         :: total energy             -33.392173788168 Eh    ::
         :: gradient norm              0.000532269884 Eh/a0 ::
         :: HOMO-LUMO gap              2.024265611677 eV    ::
         :: SCC energy               -33.670742720972 Eh    ::
         :: -> Gsolv                  -0.085547224910 Eh    ::
         :: repulsion energy           0.286527845362 Eh    ::

    * Orbital Energies and Occupations

         #    Occupation            Energy/Eh            Energy/eV
      -------------------------------------------------------------
         1        2.0000           -1.0044329             -27.3320
       ...           ...                  ...                  ...
        15        2.0000           -0.6379773             -17.3602
        16        2.0000           -0.6145328             -16.7223
        17        2.0000           -0.6053293             -16.4718
        18        2.0000           -0.6036985             -16.4275
        19        2.0000           -0.5864597             -15.9584
        20        2.0000           -0.5828927             -15.8613
        21        2.0000           -0.5755912             -15.6626
        22        2.0000           -0.5706227             -15.5274
        23        2.0000           -0.5678313             -15.4515
        24        2.0000           -0.5358798             -14.5820
        25        2.0000           -0.5336254             -14.5207
        26        2.0000           -0.5245985             -14.2751
        27        2.0000           -0.5135571             -13.9746 (HOMO)
        28                         -0.4391667             -11.9503 (LUMO)
        29                         -0.3570378              -9.7155
        30                         -0.3399642              -9.2509
        31                         -0.2507220              -6.8225
        32                         -0.1823139              -4.9610
        33                         -0.1644362              -4.4745
        34                         -0.1366861              -3.7194
        35                         -0.1293041              -3.5185
        36                         -0.1279516              -3.4817
        37                         -0.1142873              -3.1099
        38                         -0.1105927              -3.0094
       ...                                ...                  ...
        57                          0.7154213              19.4676
      -------------------------------------------------------------
                  HL-Gap            0.0743904 Eh            2.0243 eV

Wiberg/Mayer (AO) data.
largest (>0.10) Wiberg bond orders for each atom

     #   Z sym  total        # sym  WBO       # sym  WBO       # sym  WBO
 ---------------------------------------------------------------------------
     1   6 C    3.961 --     2 C    1.091    12 H    0.971    11 H    0.914
                            13 H    0.912
     2   6 C    3.799 --    10 O    1.290     3 N    1.182     1 C    1.091
     3   7 N    3.024 --     4 N    1.672     2 C    1.182
     4   7 N    3.012 --     3 N    1.672     5 C    1.078
     5   6 C    3.841 --     4 N    1.078     6 C    0.912    10 O    0.908
                             7 C    0.780
     6   6 C    3.942 --    16 H    0.977    15 H    0.973    14 H    0.973
                             5 C    0.912
     7   6 C    3.877 --     8 O    1.835     9 Cl   1.151     5 C    0.780
     8   8 O    2.136 --     7 C    1.835     9 Cl   0.157
     9  17 Cl   1.404 --     7 C    1.151     8 O    0.157
    10   8 O    2.380 --     2 C    1.290     5 C    0.908
    11   1 H    0.975 --     1 C    0.914
    12   1 H    0.983 --     1 C    0.971
    13   1 H    0.976 --     1 C    0.912
    14   1 H    0.988 --     6 C    0.973
    15   1 H    0.993 --     6 C    0.973
    16   1 H    0.989 --     6 C    0.977
 ---------------------------------------------------------------------------

           -------------------------------------------------
          | TOTAL ENERGY              -33.392173788168 Eh   |
          | GRADIENT NORM               0.000532269884 Eh/α |
          | HOMO-LUMO GAP               2.024265611677 eV   |
           -------------------------------------------------

 * finished run on 2023/06/20 at 14:54:57.942
