                         Program Version 5.0.1 -  RELEASE  -
|  1> # ORCA input file
|  2> ! SP r2SCAN-3c CPCM
|  3>
|  4> %maxcore 1875.0
|  5> %pal nprocs 4 end
|  6> %cpcm smd true SMDsolvent "DMSO" end
|  7>
|  8> *xyz 0 1
|  9> C      -2.565047    3.750399   -1.794681
| 10> O      -3.392703    2.613433   -2.104710
| 11> C      -3.275985    1.519367   -1.442726
| 12> C      -4.190155    0.420917   -1.809984
| 13> O      -2.384656    1.456826   -0.530328
| 14> C      -2.239866    0.384954    0.397617
| 15> N      -0.978964   -0.053346    0.533834
| 16> C      -0.797037   -1.011201    1.438212
| 17> C       0.609009   -1.561346    1.615808
| 18> C       0.602981   -3.056666    1.265150
| 19> C       1.050365   -1.341946    3.069899
| 20> N       1.495922   -0.839744    0.705915
| 21> C       2.813779   -1.061747    0.600102
| 22> O       3.458142   -1.874081    1.246013
| 23> C       3.428448   -0.175163   -0.427969
| 24> N       2.810871    0.701877   -1.160864
| 25> N       3.753088    1.280466   -1.960265
| 26> C       4.884643    0.717485   -1.663623
| 27> C       6.213272    0.994088   -2.253597
| 28> O       4.745696   -0.209246   -0.703916
| 29> N      -1.717977   -1.553609    2.215429
| 30> C      -3.007580   -1.130590    2.128903
| 31> O      -3.940664   -1.562468    2.817896
| 32> C      -3.277354   -0.090640    1.133820
| 33> O      -4.558420    0.355534    1.037986
| 34> H      -2.934488    4.563737   -2.413780
| 35> H      -1.528016    3.519619   -2.038031
| 36> H      -2.655919    3.990219   -0.734719
| 37> H      -5.061605    0.458145   -1.150435
| 38> H      -4.524894    0.548833   -2.836338
| 39> H      -3.703831   -0.542008   -1.664119
| 40> H       1.580092   -3.497377    1.455799
| 41> H       0.349756   -3.189661    0.214245
| 42> H      -0.144641   -3.560694    1.876398
| 43> H       2.022383   -1.798892    3.247422
| 44> H       0.314263   -1.793993    3.733878
| 45> H       1.112602   -0.275383    3.282578
| 46> H       1.056471   -0.146667    0.110300
| 47> H       6.905736    1.319573   -1.477491
| 48> H       6.615767    0.088258   -2.706674
| 49> H       6.122752    1.769707   -3.009838
| 50> H      -5.066237   -0.126970    1.723490
| 51> **                         ****END OF INPUT****

CARTESIAN COORDINATES (ANGSTROEM)
---------------------------------
  C     -2.565047    3.750399   -1.794681
  O     -3.392703    2.613433   -2.104710
  C     -3.275985    1.519367   -1.442726
  C     -4.190155    0.420917   -1.809984
  O     -2.384656    1.456826   -0.530328
  C     -2.239866    0.384954    0.397617
  N     -0.978964   -0.053346    0.533834
  C     -0.797037   -1.011201    1.438212
  C      0.609009   -1.561346    1.615808
  C      0.602981   -3.056666    1.265150
  C      1.050365   -1.341946    3.069899
  N      1.495922   -0.839744    0.705915
  C      2.813779   -1.061747    0.600102
  O      3.458142   -1.874081    1.246013
  C      3.428448   -0.175163   -0.427969
  N      2.810871    0.701877   -1.160864
  N      3.753088    1.280466   -1.960265
  C      4.884643    0.717485   -1.663623
  C      6.213272    0.994088   -2.253597
  O      4.745696   -0.209246   -0.703916
  N     -1.717977   -1.553609    2.215429
  C     -3.007580   -1.130590    2.128903
  O     -3.940664   -1.562468    2.817896
  C     -3.277354   -0.090640    1.133820
  O     -4.558420    0.355534    1.037986
  H     -2.934488    4.563737   -2.413780
  H     -1.528016    3.519619   -2.038031
  H     -2.655919    3.990219   -0.734719
  H     -5.061605    0.458145   -1.150435
  H     -4.524894    0.548833   -2.836338
  H     -3.703831   -0.542008   -1.664119
  H      1.580092   -3.497377    1.455799
  H      0.349756   -3.189661    0.214245
  H     -0.144641   -3.560694    1.876398
  H      2.022383   -1.798892    3.247422
  H      0.314263   -1.793993    3.733878
  H      1.112602   -0.275383    3.282578
  H      1.056471   -0.146667    0.110300
  H      6.905736    1.319573   -1.477491
  H      6.615767    0.088258   -2.706674
  H      6.122752    1.769707   -3.009838
  H     -5.066237   -0.126970    1.723490

 Total Charge           Charge          ....    0
 Multiplicity           Mult            ....    1
 Number of Electrons    NEL             ....  184
 Basis Dimension        Dim             ....  615

ORBITAL ENERGIES
----------------

  NO   OCC          E(Eh)            E(eV)
   0   2.0000     -19.081837      -519.2432
   1   2.0000     -19.068846      -518.8897
   2   2.0000     -19.061813      -518.6983
   3   2.0000     -18.994903      -516.8776
   4   2.0000     -18.926780      -515.0239
   5   2.0000     -18.907820      -514.5079
   6   2.0000     -14.202283      -386.4638
   7   2.0000     -14.195114      -386.2687
   8   2.0000     -14.186811      -386.0428
   9   2.0000     -14.162474      -385.3805
  10   2.0000     -14.138662      -384.7326
  11   2.0000     -10.244136      -278.7571
  12   2.0000     -10.149594      -276.1845
  13   2.0000     -10.145973      -276.0860
  14   2.0000     -10.144034      -276.0332
  15   2.0000     -10.140035      -275.9244
  16   2.0000     -10.115818      -275.2654
  17   2.0000     -10.103991      -274.9436
  18   2.0000     -10.103096      -274.9192
  19   2.0000     -10.102040      -274.8905
  20   2.0000     -10.088530      -274.5229
  21   2.0000     -10.060237      -273.7530
  22   2.0000     -10.044119      -273.3144
  23   2.0000     -10.014289      -272.5027
  24   2.0000     -10.013610      -272.4842
  25   2.0000      -1.172101       -31.8945
  26   2.0000      -1.151791       -31.3418
  27   2.0000      -1.096217       -29.8296
  28   2.0000      -1.041306       -28.3354
  29   2.0000      -1.015394       -27.6303
  30   2.0000      -0.981890       -26.7186
  31   2.0000      -0.972140       -26.4533
  32   2.0000      -0.944995       -25.7146
  33   2.0000      -0.901363       -24.5273
  34   2.0000      -0.845390       -23.0042
  35   2.0000      -0.828622       -22.5480
  36   2.0000      -0.789558       -21.4850
  37   2.0000      -0.769272       -20.9330
  38   2.0000      -0.739144       -20.1131
  39   2.0000      -0.709878       -19.3168
  40   2.0000      -0.707461       -19.2510
  41   2.0000      -0.680792       -18.5253
  42   2.0000      -0.659120       -17.9356
  43   2.0000      -0.653568       -17.7845
  44   2.0000      -0.631044       -17.1716
  45   2.0000      -0.608189       -16.5497
  46   2.0000      -0.579932       -15.7807
  47   2.0000      -0.563590       -15.3361
  48   2.0000      -0.552911       -15.0455
  49   2.0000      -0.540138       -14.6979
  50   2.0000      -0.528252       -14.3745
  51   2.0000      -0.522108       -14.2073
  52   2.0000      -0.519336       -14.1319
  53   2.0000      -0.515652       -14.0316
  54   2.0000      -0.492572       -13.4036
  55   2.0000      -0.491149       -13.3648
  56   2.0000      -0.462560       -12.5869
  57   2.0000      -0.449489       -12.2312
  58   2.0000      -0.439062       -11.9475
  59   2.0000      -0.434915       -11.8346
  60   2.0000      -0.426264       -11.5992
  61   2.0000      -0.416836       -11.3427
  62   2.0000      -0.413762       -11.2590
  63   2.0000      -0.402830       -10.9616
  64   2.0000      -0.400854       -10.9078
  65   2.0000      -0.400291       -10.8925
  66   2.0000      -0.394352       -10.7309
  67   2.0000      -0.390902       -10.6370
  68   2.0000      -0.388118       -10.5612
  69   2.0000      -0.382804       -10.4166
  70   2.0000      -0.378807       -10.3079
  71   2.0000      -0.377099       -10.2614
  72   2.0000      -0.362284        -9.8583
  73   2.0000      -0.358732        -9.7616
  74   2.0000      -0.350381        -9.5344
  75   2.0000      -0.345288        -9.3958
  76   2.0000      -0.343425        -9.3451
  77   2.0000      -0.341220        -9.2851
  78   2.0000      -0.336458        -9.1555
  79   2.0000      -0.329761        -8.9733
  80   2.0000      -0.327183        -8.9031
  81   2.0000      -0.316009        -8.5990
  82   2.0000      -0.314862        -8.5678
  83   2.0000      -0.287850        -7.8328
  84   2.0000      -0.266935        -7.2637
  85   2.0000      -0.262213        -7.1352
  86   2.0000      -0.253100        -6.8872
  87   2.0000      -0.237487        -6.4624
  88   2.0000      -0.232997        -6.3402
  89   2.0000      -0.232306        -6.3214
  90   2.0000      -0.219890        -5.9835
  91   2.0000      -0.195293        -5.3142
  92   0.0000      -0.098989        -2.6936
  93   0.0000      -0.080527        -2.1912
  94   0.0000      -0.035852        -0.9756
  95   0.0000      -0.020258        -0.5512
  96   0.0000      -0.018001        -0.4898

MULLIKEN ATOMIC CHARGES
-----------------------
   0 C :   -0.308066
   1 O :   -0.133766
   2 C :    0.526795
   3 C :   -0.550247
   4 O :   -0.052007
   5 C :   -0.138575
   6 N :   -0.272465
   7 C :    0.541875
   8 C :   -0.152335
   9 C :   -0.647976
  10 C :   -0.646786
  11 N :    0.030538
  12 C :   -0.113699
  13 O :   -0.460588
  14 C :    0.375805
  15 N :   -0.147987
  16 N :   -0.317259
  17 C :    0.410139
  18 C :   -0.641589
  19 O :   -0.028920
  20 N :   -0.309691
  21 C :   -0.029858
  22 O :   -0.466470
  23 C :    0.216593
  24 O :   -0.393350
  25 H :    0.201244
  26 H :    0.204100
  27 H :    0.199304
  28 H :    0.252139
  29 H :    0.214891
  30 H :    0.236162
  31 H :    0.194543
  32 H :    0.181736
  33 H :    0.187816
  34 H :    0.195307
  35 H :    0.188176
  36 H :    0.180855
  37 H :    0.313459
  38 H :    0.200028
  39 H :    0.199823
  40 H :    0.203960
  41 H :    0.356344
Sum of atomic charges:    0.0000000

LOEWDIN ATOMIC CHARGES
----------------------
   0 C :   -0.003934
   1 O :   -0.491460
   2 C :    0.483063
   3 C :   -0.286153
   4 O :   -0.382276
   5 C :    0.365528
   6 N :   -0.561479
   7 C :    0.326316
   8 C :    0.107619
   9 C :   -0.348847
  10 C :   -0.349592
  11 N :   -0.583528
  12 C :    0.377765
  13 O :   -0.468680
  14 C :    0.419807
  15 N :   -0.363024
  16 N :   -0.364449
  17 C :    0.374832
  18 C :   -0.318468
  19 O :   -0.362859
  20 N :   -0.570980
  21 C :    0.313568
  22 O :   -0.532950
  23 C :    0.243104
  24 O :   -0.496650
  25 H :    0.201613
  26 H :    0.198759
  27 H :    0.198526
  28 H :    0.230444
  29 H :    0.202297
  30 H :    0.208291
  31 H :    0.175154
  32 H :    0.170940
  33 H :    0.174064
  34 H :    0.175836
  35 H :    0.174619
  36 H :    0.170866
  37 H :    0.309324
  38 H :    0.191004
  39 H :    0.190940
  40 H :    0.190388
  41 H :    0.310660

  Mayer bond orders larger than 0.100000
B(  0-C ,  1-O ) :   0.8060 B(  0-C , 25-H ) :   0.9489 B(  0-C , 26-H ) :   0.9385
B(  0-C , 27-H ) :   0.9426 B(  1-O ,  2-C ) :   1.3567 B(  2-C ,  3-C ) :   0.9564
B(  2-C ,  4-O ) :   1.2552 B(  3-C , 28-H ) :   0.8807 B(  3-C , 29-H ) :   0.9317
B(  3-C , 30-H ) :   0.9375 B(  4-O ,  5-C ) :   0.9722 B(  5-C ,  6-N ) :   1.4336
B(  5-C ,  7-C ) :   0.1035 B(  5-C , 23-C ) :   1.4070 B(  6-N ,  7-C ) :   1.3746
B(  7-C ,  8-C ) :   0.7295 B(  7-C , 11-N ) :  -0.1127 B(  7-C , 20-N ) :   1.1575
B(  8-C ,  9-C ) :   0.9207 B(  8-C , 10-C ) :   0.9192 B(  8-C , 11-N ) :   0.9169
B(  9-C , 31-H ) :   0.9638 B(  9-C , 32-H ) :   0.9694 B(  9-C , 33-H ) :   0.9640
B( 10-C , 34-H ) :   0.9639 B( 10-C , 35-H ) :   0.9635 B( 10-C , 36-H ) :   0.9697
B( 11-N , 12-C ) :   1.1773 B( 11-N , 37-H ) :   0.8423 B( 12-C , 13-O ) :   1.8929
B( 12-C , 14-C ) :   0.8625 B( 14-C , 15-N ) :   1.6816 B( 14-C , 19-O ) :   1.1274
B( 15-N , 16-N ) :   1.2049 B( 16-N , 17-C ) :   1.6133 B( 17-C , 18-C ) :   0.8312
B( 17-C , 19-O ) :   1.0726 B( 18-C , 38-H ) :   0.9430 B( 18-C , 39-H ) :   0.9429
B( 18-C , 40-H ) :   0.9895 B( 20-N , 21-C ) :   1.3114 B( 21-C , 22-O ) :   1.9948
B( 21-C , 23-C ) :   0.9394 B( 23-C , 24-O ) :   0.9672 B( 24-O , 41-H ) :   0.8133

Dispersion correction           -0.018108974
FINAL SINGLE POINT ENERGY     -1268.610445441010

DIPOLE MOMENT
-------------
                                X             Y             Z
Electronic contribution:     -2.52691       2.44432      -0.09900
Nuclear contribution   :      1.22094       1.82096      -4.84512
                        -----------------------------------------
Total Dipole Moment    :     -1.30597       4.26528      -4.94412
                        -----------------------------------------
Magnitude (a.u.)       :      6.65902
Magnitude (Debye)      :     16.92588

Rotational constants in cm-1:     0.009908     0.004237     0.003102
Rotational constants in MHz :   297.043704   127.010483    92.985398

                             ****ORCA TERMINATED NORMALLY****
TOTAL RUN TIME: 0 days 0 hours 2 minutes 1 seconds 162 msec
