   * xtb version 6.5.1 (579679a) compiled by 'ehlert@majestix' on 2022-07-11
          program call               : /lustre/hpc/kemi/ree/PhD/git/ReactivityQM/dep/xtb-6.5.1/bin/xtb --gfn 1 /lustre/hpc/kemi/ree/PhD/git/ReactivityQM/calculations/R02deprot/reac01prodN09/conf08/R02deprot_reac01prodN09_conf08_gfn1.xyz --opt --vfukui --chrg 0 --uhf 0 --alpb DMSO

   ID    Z sym.   atoms
    1    6 C      1, 3, 4, 6, 8-11, 13, 15, 18, 19, 22, 24
    2    8 O      2, 5, 14, 20, 23, 25
    3    7 N      7, 12, 16, 17, 21
    4    1 H      26-42

      * Solvation model:               ALPB
        Solvent                        DMSO
        Solvent mass                       7.8130E+01 g/mol
          :  Hamiltonian                  GFN1-xTB          :
 * total energy  :   -82.8555321 Eh     change       -0.9947598E-12 Eh
 * total energy  :   -82.8782320 Eh     change       -0.2269987E-01 Eh
 * total energy  :   -82.8950915 Eh     change       -0.1685952E-01 Eh
 * total energy  :   -82.8996982 Eh     change       -0.4606651E-02 Eh
 * total energy  :   -82.9046685 Eh     change       -0.4970363E-02 Eh
 * total energy  :   -82.9104838 Eh     change       -0.5815209E-02 Eh
 * total energy  :   -82.9170589 Eh     change       -0.6575129E-02 Eh
 * total energy  :   -82.9202975 Eh     change       -0.3238664E-02 Eh
 * total energy  :   -82.9231194 Eh     change       -0.2821840E-02 Eh
 * total energy  :   -82.9243336 Eh     change       -0.1214249E-02 Eh
 * total energy  :   -82.9672203 Eh     change       -0.2399164E-04 Eh
 * total energy  :   -82.9672315 Eh     change       -0.1123071E-04 Eh
 * total energy  :   -82.9672477 Eh     change       -0.1614357E-04 Eh
 * total energy  :   -82.9672580 Eh     change       -0.1033624E-04 Eh
 * total energy  :   -82.9672704 Eh     change       -0.1238183E-04 Eh
 * total energy  :   -82.9672791 Eh     change       -0.8657101E-05 Eh
 * total energy  :   -82.9672844 Eh     change       -0.5291867E-05 Eh
 * total energy  :   -82.9672894 Eh     change       -0.5047245E-05 Eh
 * total energy  :   -82.9672927 Eh     change       -0.3278343E-05 Eh
   *** GEOMETRY OPTIMIZATION CONVERGED AFTER 120 ITERATIONS ***

 final structure:
================
42
 xtb: 6.5.1 (579679a)
C           -2.56504673011779        3.75039901390469       -1.79468143814251
O           -3.39270291012654        2.61343271271050       -2.10470951828969
C           -3.27598524398038        1.51936705982897       -1.44272567503534
C           -4.19015482297009        0.42091718593986       -1.80998413570507
O           -2.38465602253937        1.45682597248036       -0.53032793356558
C           -2.23986619344326        0.38495354742908        0.39761733627223
N           -0.97896385266789       -0.05334606855883        0.53383358236012
C           -0.79703668341410       -1.01120116962039        1.43821231624852
C            0.60900890817248       -1.56134563784164        1.61580799226945
C            0.60298114446990       -3.05666609394041        1.26515032481321
C            1.05036506074243       -1.34194559116477        3.06989949575096
N            1.49592231000056       -0.83974351796922        0.70591490848005
C            2.81377920547034       -1.06174738311225        0.60010205655644
O            3.45814181974669       -1.87408089774644        1.24601314541087
C            3.42844800002421       -0.17516345520491       -0.42796869969931
N            2.81087107247834        0.70187697480865       -1.16086446474971
N            3.75308805904088        1.28046590919541       -1.96026487716102
C            4.88464265688107        0.71748524464405       -1.66362340869759
C            6.21327200660671        0.99408813846456       -2.25359743531743
O            4.74569573051556       -0.20924561281976       -0.70391584453295
N           -1.71797692089447       -1.55360913429542        2.21542854989168
C           -3.00757961837773       -1.13058974220121        2.12890325782827
O           -3.94066371938301       -1.56246815167785        2.81789636772224
C           -3.27735405240080       -0.09063994388936        1.13381952962567
O           -4.55842006696665        0.35553449147828        1.03798604697745
H           -2.93448768112961        4.56373665979890       -2.41378046344583
H           -1.52801578444339        3.51961884237689       -2.03803129805252
H           -2.65591897170038        3.99021906485700       -0.73471855323696
H           -5.06160501690893        0.45814534582814       -1.15043535325860
H           -4.52489418100111        0.54883302517925       -2.83633838712832
H           -3.70383085035693       -0.54200760890803       -1.66411943877151
H            1.58009248740681       -3.49737749643099        1.45579896691759
H            0.34975621378231       -3.18966105977003        0.21424511829784
H           -0.14464137917206       -3.56069372991315        1.87639804624631
H            2.02238306744524       -1.79889245369516        3.24742196470647
H            0.31426290083231       -1.79399330893217        3.73387756002402
H            1.11260246290573       -0.27538263701892        3.28257812871612
H            1.05647138129400       -0.14666714565522        0.11029997057903
H            6.90573581862519        1.31957272975998       -1.47749095769282
H            6.61576738608615        0.08825756372572       -2.70667350354462
H            6.12275232258108        1.76970670108964       -3.00983763411894
H           -5.06623731311317       -0.12697034316416        1.72349035450407

          :  Hamiltonian                  GFN1-xTB          :
         :: total energy             -82.967292677553 Eh    ::
         :: gradient norm              0.000629698603 Eh/a0 ::
         :: HOMO-LUMO gap              1.552329214962 eV    ::
         :: SCC energy               -83.745011757456 Eh    ::
         :: -> Gsolv                  -0.062066376031 Eh    ::
         :: repulsion energy           0.802583693408 Eh    ::

    * Orbital Energies and Occupations

         #    Occupation            Energy/Eh            Energy/eV
      -------------------------------------------------------------
         1        2.0000           -0.9075724             -24.6963
       ...           ...                  ...                  ...
        55        2.0000           -0.5009817             -13.6324
        56        2.0000           -0.4893576             -13.3161
        57        2.0000           -0.4880421             -13.2803
        58        2.0000           -0.4788033             -13.0289
        59        2.0000           -0.4639909             -12.6258
        60        2.0000           -0.4577880             -12.4570
        61        2.0000           -0.4559922             -12.4082
        62        2.0000           -0.4469361             -12.1617
        63        2.0000           -0.4466431             -12.1538
        64        2.0000           -0.4347748             -11.8308
        65        2.0000           -0.4324990             -11.7689
        66        2.0000           -0.4014483             -10.9240
        67        2.0000           -0.3974092             -10.8141 (HOMO)
        68                         -0.3403621              -9.2617 (LUMO)
        69                         -0.3036521              -8.2628
        70                         -0.2610532              -7.1036
        71                         -0.2544365              -6.9236
        72                         -0.2516704              -6.8483
        73                         -0.1918014              -5.2192
        74                         -0.1685664              -4.5869
        75                         -0.1537162              -4.1828
        76                         -0.1418324              -3.8595
        77                         -0.1398377              -3.8052
        78                         -0.1125479              -3.0626
       ...                                ...                  ...
       134                          0.7263895              19.7661
      -------------------------------------------------------------
                  HL-Gap            0.0570470 Eh            1.5523 eV

Wiberg/Mayer (AO) data.
largest (>0.10) Wiberg bond orders for each atom

     #   Z sym  total        # sym  WBO       # sym  WBO       # sym  WBO
 ---------------------------------------------------------------------------
     1   6 C    3.827 --    26 H    0.982    28 H    0.975    27 H    0.974
                             2 O    0.852
     2   8 O    2.304 --     3 C    1.273     1 C    0.852
     3   6 C    3.781 --     5 O    1.295     2 O    1.273     4 C    1.039
     4   6 C    3.970 --     3 C    1.039    30 H    0.969    31 H    0.962
                            29 H    0.915
     5   8 O    2.351 --     3 C    1.295     6 C    0.832
     6   6 C    3.813 --    24 C    1.489     7 N    1.256     5 O    0.832
     7   7 N    3.005 --     8 C    1.383     6 C    1.256
     8   6 C    3.950 --    21 N    1.422     7 N    1.383     9 C    0.978
     9   6 C    3.932 --    11 C    0.982    10 C    0.980     8 C    0.978
                            12 N    0.925
    10   6 C    3.992 --    33 H    0.987    34 H    0.984    32 H    0.982
                             9 C    0.980
    11   6 C    3.992 --    37 H    0.986    36 H    0.984    35 H    0.982
                             9 C    0.982
    12   7 N    3.372 --    13 C    1.285     9 C    0.925    38 H    0.880
                            14 O    0.185
    13   6 C    3.922 --    14 O    1.574    12 N    1.285    15 C    0.983
    14   8 O    1.894 --    13 C    1.574    12 N    0.185
    15   6 C    3.871 --    16 N    1.615    20 O    1.063    13 C    0.983
    16   7 N    3.010 --    15 C    1.615    17 N    1.194
    17   7 N    2.979 --    18 C    1.610    16 N    1.194
    18   6 C    3.873 --    17 N    1.610    20 O    1.082    19 C    1.031
    19   6 C    3.987 --    18 C    1.031    41 H    0.983    40 H    0.964
                            39 H    0.964
    20   8 O    2.328 --    18 C    1.082    15 C    1.063
    21   7 N    2.995 --     8 C    1.422    22 C    1.218    23 O    0.116
    22   6 C    3.930 --    23 O    1.506    21 N    1.218    24 C    1.070
    23   8 O    1.834 --    22 C    1.506    21 N    0.116
    24   6 C    3.905 --     6 C    1.489    22 C    1.070    25 O    1.046
    25   8 O    2.035 --    24 C    1.046    42 H    0.805
    26   1 H    1.003 --     1 C    0.982
    27   1 H    0.998 --     1 C    0.974
    28   1 H    0.999 --     1 C    0.975
    29   1 H    0.999 --     4 C    0.915
    30   1 H    0.991 --     4 C    0.969
    31   1 H    0.992 --     4 C    0.962
    32   1 H    1.010 --    10 C    0.982
    33   1 H    1.004 --    10 C    0.987
    34   1 H    1.012 --    10 C    0.984
    35   1 H    1.011 --    11 C    0.982
    36   1 H    1.013 --    11 C    0.984
    37   1 H    1.004 --    11 C    0.986
    38   1 H    0.975 --    12 N    0.880
    39   1 H    0.997 --    19 C    0.964
    40   1 H    0.997 --    19 C    0.964
    41   1 H    0.999 --    19 C    0.983
    42   1 H    0.855 --    25 O    0.805
 ---------------------------------------------------------------------------

           -------------------------------------------------
          | TOTAL ENERGY              -82.967292677553 Eh   |
          | GRADIENT NORM               0.000629698603 Eh/α |
          | HOMO-LUMO GAP               1.552329214962 eV   |
           -------------------------------------------------

 * finished run on 2023/06/20 at 18:15:37.904
