   * xtb version 6.5.1 (579679a) compiled by 'ehlert@majestix' on 2022-07-11
          program call               : /lustre/hpc/kemi/ree/PhD/git/ReactivityQM/dep/xtb-6.5.1/bin/xtb --gfn 1 /lustre/hpc/kemi/ree/PhD/git/ReactivityQM/calculations/RaltegravirCLI/reac02prodN02/conf11/RaltegravirCLI_reac02prodN02_conf11_gfn1.xyz --opt --vfukui --chrg 1 --uhf 0 --alpb DMSO

   ID    Z sym.   atoms
    1    6 C      1, 3-6, 8, 9, 12-16, 18-20, 22, 25
    2    7 N      2, 7, 11, 24
    3    8 O      10, 21, 23
    4    9 F      17
    5    1 H      26-47

      * Solvation model:               ALPB
        Solvent                        DMSO
        Solvent mass                       7.8130E+01 g/mol
          :  Hamiltonian                  GFN1-xTB          :
 * total energy  :   -79.5256605 Eh     change       -0.9706014E-11 Eh
 * total energy  :   -79.5360020 Eh     change       -0.1034149E-01 Eh
 * total energy  :   -79.5393046 Eh     change       -0.3302616E-02 Eh
 * total energy  :   -79.5401211 Eh     change       -0.8165474E-03 Eh
 * total energy  :   -79.5406478 Eh     change       -0.5267082E-03 Eh
 * total energy  :   -79.5408855 Eh     change       -0.2376607E-03 Eh
 * total energy  :   -79.5410413 Eh     change       -0.1557699E-03 Eh
 * total energy  :   -79.5411296 Eh     change       -0.8830508E-04 Eh
 * total energy  :   -79.5411712 Eh     change       -0.4163195E-04 Eh
 * total energy  :   -79.5412034 Eh     change       -0.3222911E-04 Eh
 * total energy  :   -79.5418319 Eh     change       -0.1145670E-04 Eh
 * total energy  :   -79.5418442 Eh     change       -0.1226993E-04 Eh
 * total energy  :   -79.5418534 Eh     change       -0.9249364E-05 Eh
 * total energy  :   -79.5418596 Eh     change       -0.6169943E-05 Eh
 * total energy  :   -79.5418660 Eh     change       -0.6406373E-05 Eh
 * total energy  :   -79.5418744 Eh     change       -0.8334465E-05 Eh
 * total energy  :   -79.5418830 Eh     change       -0.8622815E-05 Eh
 * total energy  :   -79.5418897 Eh     change       -0.6686088E-05 Eh
 * total energy  :   -79.5418940 Eh     change       -0.4311652E-05 Eh
   *** GEOMETRY OPTIMIZATION CONVERGED AFTER 36 ITERATIONS ***

 final structure:
================
47
 xtb: 6.5.1 (579679a)
C           -1.94193063860569       -0.99372594199674       -2.26426383423403
N           -2.37047985238674       -1.82147699881523       -1.11154242418566
C           -3.18227498385681       -1.12176823768205       -0.04666226351930
C           -4.31867779132202       -0.36466288407204       -0.73095540527892
C           -3.71158973403087       -2.24548539007640        0.85230064445033
C           -2.16559194018168       -0.28112889651622        0.72030733050624
N           -0.93486990457214       -0.61160656064443        0.50115979625556
C            0.11730361646781        0.00259962672087        1.12485259489135
C            1.44392407082404       -0.54698023099192        0.68770724417629
O            1.49935586973159       -1.42801112630067       -0.16311578924964
N            2.52642208528443       -0.03108629853133        1.28911221572799
C            3.86728345766214       -0.49721722438214        0.93741645801130
C            4.41876858959851        0.28303760594879       -0.23698192467071
C            5.26765829428998        1.36694339709243       -0.02796073502670
C            5.76699688426439        2.09070195752947       -1.10263235594208
C            5.39615311723716        1.70855552717363       -2.37898513694001
F            5.87491410469129        2.40274453887782       -3.42395047216119
C            4.55255184326126        0.63935909277284       -2.62241544496075
C            4.06473114277339       -0.07342456287249       -1.53691321335959
C           -0.14762083361442        0.99979546436185        2.01479901723892
O            0.79231875956769        1.68367059251434        2.68493738931779
C           -1.51895273556913        1.39335262320215        2.30057943393878
O           -1.77823257875835        2.28473004948208        3.09721308517157
N           -2.50756425834739        0.68840812179457        1.61855741320396
C           -3.88447308819418        1.07493635327185        1.93381782008615
H           -2.80932259933541       -0.71649661217373       -2.85453907722694
H           -1.26146807101191       -1.59939059006065       -2.85859025386486
H           -1.43087247063416       -0.11296849874051       -1.88417869838333
H           -2.88510666779941       -2.62748675248029       -1.45150892694991
H           -1.51031316288185       -2.13938502970234       -0.64159021686776
H           -4.72730305658781       -0.97852249525411       -1.53230203943117
H           -3.97247879539845        0.58008951887531       -1.14575413272618
H           -5.12276671974031       -0.17029343871293       -0.02597197205181
H           -4.25227472350393       -1.82870648122597        1.69907013285743
H           -4.38980923418631       -2.88194428028782        0.28650837905643
H           -2.88327511357079       -2.84496289713072        1.22703016507407
H            2.44785178923130        0.73448773525132        1.93767640337952
H            3.79662612746085       -1.56015440971264        0.68662437681410
H            4.50314756819422       -0.37402948265688        1.81684514143632
H            5.54498624198649        1.64980186592533        0.98070674854318
H            6.42819924813743        2.93461511727409       -0.95407599884762
H            4.28569551509485        0.37230223037788       -3.63669166043365
H            3.40103315229773       -0.91396674984240       -1.70044023044225
H            0.35679636889346        2.33988595039456        3.26326937563597
H           -4.28014436416239        1.70559745822072        1.13967575831777
H           -4.50077143363144        0.19064675844326        2.05991609694211
H           -3.86455409506038        1.63862148535827        2.86649218574356

          :  Hamiltonian                  GFN1-xTB          :
         :: total energy             -79.541893970824 Eh    ::
         :: gradient norm              0.000268296242 Eh/a0 ::
         :: HOMO-LUMO gap              2.958749408747 eV    ::
         :: SCC energy               -80.442324911291 Eh    ::
         :: -> Gsolv                  -0.119034248470 Eh    ::
         :: repulsion energy           0.931264274203 Eh    ::

    * Orbital Energies and Occupations

         #    Occupation            Energy/Eh            Energy/eV
      -------------------------------------------------------------
         1        2.0000           -0.8813589             -23.9830
       ...           ...                  ...                  ...
        55        2.0000           -0.5271976             -14.3458
        56        2.0000           -0.5137961             -13.9811
        57        2.0000           -0.5079728             -13.8226
        58        2.0000           -0.5053685             -13.7518
        59        2.0000           -0.4888798             -13.3031
        60        2.0000           -0.4842592             -13.1774
        61        2.0000           -0.4754108             -12.9366
        62        2.0000           -0.4713974             -12.8274
        63        2.0000           -0.4554864             -12.3944
        64        2.0000           -0.4535143             -12.3408
        65        2.0000           -0.4481235             -12.1941
        66        2.0000           -0.4402748             -11.9805
        67        2.0000           -0.4383441             -11.9279 (HOMO)
        68                         -0.3296120              -8.9692 (LUMO)
        69                         -0.3016069              -8.2071
        70                         -0.2754539              -7.4955
        71                         -0.2695964              -7.3361
        72                         -0.2415985              -6.5742
        73                         -0.1782893              -4.8515
        74                         -0.1675083              -4.5581
        75                         -0.1666211              -4.5340
        76                         -0.1656384              -4.5073
        77                         -0.1484031              -4.0383
        78                         -0.1480304              -4.0281
       ...                                ...                  ...
       144                          0.7097514              19.3133
      -------------------------------------------------------------
                  HL-Gap            0.1087320 Eh            2.9587 eV

Wiberg/Mayer (AO) data.
largest (>0.10) Wiberg bond orders for each atom

     #   Z sym  total        # sym  WBO       # sym  WBO       # sym  WBO
 ---------------------------------------------------------------------------
     1   6 C    3.899 --    26 H    0.984    28 H    0.983    27 H    0.980
                             2 N    0.920
     2   7 N    3.601 --     1 C    0.920    29 H    0.894     3 C    0.890
                            30 H    0.863
     3   6 C    3.906 --     4 C    0.998     5 C    0.985     6 C    0.979
                             2 N    0.890
     4   6 C    3.984 --     3 C    0.998    32 H    0.982    31 H    0.978
                            33 H    0.975
     5   6 C    3.982 --     3 C    0.985    36 H    0.981    35 H    0.979
                            34 H    0.974
     6   6 C    3.942 --     7 N    1.563    24 N    1.191     3 C    0.979
     7   7 N    3.067 --     6 C    1.563     8 C    1.177
     8   6 C    3.954 --    20 C    1.510     7 N    1.177     9 C    0.987
     9   6 C    3.913 --    10 O    1.565    11 N    1.283     8 C    0.987
    10   8 O    1.880 --     9 C    1.565    11 N    0.175
    11   7 N    3.362 --     9 C    1.283    12 C    0.935    37 H    0.886
                            10 O    0.175
    12   6 C    3.943 --    13 C    0.993    39 H    0.977    38 H    0.970
                            11 N    0.935
    13   6 C    3.988 --    14 C    1.422    19 C    1.416    12 C    0.993
    14   6 C    3.994 --    15 C    1.441    13 C    1.422    40 H    0.971
                            18 C    0.110
    15   6 C    3.991 --    14 C    1.441    16 C    1.402    41 H    0.969
                            19 C    0.111
    16   6 C    3.860 --    15 C    1.402    18 C    1.399    17 F    0.925
    17   9 F    1.054 --    16 C    0.925
    18   6 C    3.992 --    19 C    1.446    16 C    1.399    42 H    0.969
                            14 C    0.110
    19   6 C    3.992 --    18 C    1.446    13 C    1.416    43 H    0.968
                            15 C    0.111
    20   6 C    3.919 --     8 C    1.510    21 O    1.091    22 C    1.079
    21   8 O    2.081 --    20 C    1.091    44 H    0.794
    22   6 C    3.911 --    23 O    1.572    24 N    1.108    20 C    1.079
    23   8 O    1.918 --    22 C    1.572    24 N    0.130
    24   7 N    3.510 --     6 C    1.191    22 C    1.108    25 C    0.924
                            23 O    0.130
    25   6 C    3.914 --    46 H    0.977    45 H    0.975    47 H    0.970
                            24 N    0.924
    26   1 H    0.995 --     1 C    0.984
    27   1 H    0.990 --     1 C    0.980
    28   1 H    1.002 --     1 C    0.983
    29   1 H    0.920 --     2 N    0.894
    30   1 H    0.952 --     2 N    0.863
    31   1 H    0.993 --     4 C    0.978
    32   1 H    0.997 --     4 C    0.982
    33   1 H    0.999 --     4 C    0.975
    34   1 H    0.997 --     5 C    0.974
    35   1 H    0.992 --     5 C    0.979
    36   1 H    0.995 --     5 C    0.981
    37   1 H    0.941 --    11 N    0.886
    38   1 H    1.007 --    12 C    0.970
    39   1 H    1.002 --    12 C    0.977
    40   1 H    0.999 --    14 C    0.971
    41   1 H    0.998 --    15 C    0.969
    42   1 H    0.998 --    18 C    0.969
    43   1 H    1.012 --    19 C    0.968
    44   1 H    0.836 --    21 O    0.794
    45   1 H    0.999 --    25 C    0.975
    46   1 H    1.002 --    25 C    0.977
    47   1 H    1.003 --    25 C    0.970
 ---------------------------------------------------------------------------

           -------------------------------------------------
          | TOTAL ENERGY              -79.541893970824 Eh   |
          | GRADIENT NORM               0.000268296242 Eh/α |
          | HOMO-LUMO GAP               2.958749408747 eV   |
           -------------------------------------------------

 * finished run on 2023/06/20 at 15:17:12.069
