   * xtb version 6.5.1 (579679a) compiled by 'ehlert@majestix' on 2022-07-11
          program call               : /lustre/hpc/kemi/ree/PhD/git/ReactivityQM/dep/xtb-6.5.1/bin/xtb --gfn 1 /lustre/hpc/kemi/ree/PhD/git/ReactivityQM/calculations/R03/reac02prodE12/conf05/R03_reac02prodE12_conf05_gfn1.xyz --opt --vfukui --chrg -1 --uhf 0 --alpb DMSO

   ID    Z sym.   atoms
    1    6 C      1, 3, 5, 6, 8, 9, 12-16, 18, 20, 23, 24
    2    8 O      2, 4, 7, 10, 19, 25
    3    7 N      11, 17, 21, 22, 26
    4    1 H      27-46

      * Solvation model:               ALPB
        Solvent                        DMSO
        Solvent mass                       7.8130E+01 g/mol
          :  Hamiltonian                  GFN1-xTB          :
 * total energy  :   -87.0131925 Eh     change       -0.5101697E-10 Eh
 * total energy  :   -87.0278452 Eh     change       -0.1465265E-01 Eh
 * total energy  :   -87.0351595 Eh     change       -0.7314333E-02 Eh
 * total energy  :   -87.0371901 Eh     change       -0.2030596E-02 Eh
 * total energy  :   -87.0384346 Eh     change       -0.1244473E-02 Eh
 * total energy  :   -87.0390644 Eh     change       -0.6297791E-03 Eh
 * total energy  :   -87.0395330 Eh     change       -0.4686394E-03 Eh
 * total energy  :   -87.0398900 Eh     change       -0.3569556E-03 Eh
 * total energy  :   -87.0401976 Eh     change       -0.3076222E-03 Eh
 * total energy  :   -87.0405093 Eh     change       -0.3116835E-03 Eh
 * total energy  :   -87.0417550 Eh     change       -0.9571297E-05 Eh
 * total energy  :   -87.0417640 Eh     change       -0.9030152E-05 Eh
 * total energy  :   -87.0417805 Eh     change       -0.1641330E-04 Eh
 * total energy  :   -87.0417968 Eh     change       -0.1639752E-04 Eh
 * total energy  :   -87.0418093 Eh     change       -0.1245630E-04 Eh
 * total energy  :   -87.0418200 Eh     change       -0.1073409E-04 Eh
 * total energy  :   -87.0418283 Eh     change       -0.8270124E-05 Eh
 * total energy  :   -87.0418325 Eh     change       -0.4223492E-05 Eh
 * total energy  :   -87.0418368 Eh     change       -0.4296321E-05 Eh
   *** GEOMETRY OPTIMIZATION CONVERGED AFTER 34 ITERATIONS ***

 final structure:
================
46
 xtb: 6.5.1 (579679a)
C           -2.42676939938239        4.58865980004830       -1.18107474899918
O           -2.71175206312926        3.21806428831153       -0.90110111740391
C           -1.62569764281733        2.42923214292224       -0.66386129760269
O           -0.50104575719925        2.89573409970022       -0.69532928917952
C           -1.95229379731522        1.03175687043989       -0.38450496069694
C           -3.18868572159013        0.46841097536720       -0.34447618400461
O           -4.34632582315168        1.11300812450958       -0.56799648183333
C           -3.38842902710726       -1.02729407761889        0.05995623509862
C           -3.25974246331299       -1.08143545241963        1.62554359766910
O           -4.41786970210733       -1.61635913664295       -0.41927791294802
N           -2.02039941939431       -1.69504960643862       -0.45127863169330
C           -2.16611575488845       -3.04691405925960       -0.95341442739808
C           -0.86367129418930       -1.03855159189144       -0.27219886480636
C            0.49442429967334       -1.76010973779667       -0.12755980489112
C            0.48854461675161       -2.63397596772067        1.13566742968330
C            0.90328977690488       -2.56268246213567       -1.36995464738027
N            1.48095906770273       -0.69120288745398        0.05977180442373
C            2.77905959655334       -0.85504385079208        0.31914464369586
O            3.37723285854440       -1.92086789252046        0.40352729040365
C            3.45875777959858        0.46217046054708        0.49900429397277
N            2.90808900846300        1.63343069335552        0.41098873397058
N            3.89013003405098        2.55067320539818        0.64998573223091
C            4.97628719995784        1.87852018780398        0.86953250568387
C            6.31966333644864        2.41554040961544        1.18168296867179
O            4.77229511675037        0.55483117343159        0.78871535574341
N           -0.80236203791102        0.25418515084053       -0.15663389458843
H           -1.79611031368820        4.67196837384686       -2.07073651985614
H           -3.38050683440469        5.08290959739161       -1.35354130068720
H           -1.91334990594094        5.05116746459364       -0.33328201495260
H           -4.21982860759127        2.04685993759334       -0.80123762467417
H           -4.11672948334828       -0.56460671832305        2.05484662099339
H           -3.28032990773109       -2.12341786162049        1.93882306799595
H           -2.34092283354952       -0.61399117437132        1.97371690367436
H           -1.75106664690988       -3.13375308261687       -1.95990363723147
H           -1.69958566386249       -3.78933007035325       -0.30243416619578
H           -3.23912721043114       -3.26222879434185       -1.00629542850783
H            1.45522506806027       -3.11926643139111        1.25957368013960
H            0.28759688681506       -2.01494592823476        2.00961371564447
H           -0.27615875861527       -3.40355804806518        1.06823762985068
H            1.95691597757256       -2.82968037838284       -1.29939197206264
H            0.75139777268124       -1.96728727248223       -2.26962077661287
H            0.33330751610867       -3.48389270402452       -1.44737563283138
H            1.07827696270653        0.25187605888476        0.03650619531874
H            6.63974339616591        2.07302681660331        2.16532659532709
H            7.04464302372979        2.06132639215937        0.44959598855071
H            6.28903577432480        3.50209396353285        1.16844134829787

          :  Hamiltonian                  GFN1-xTB          :
         :: total energy             -87.041836829782 Eh    ::
         :: gradient norm              0.000823903974 Eh/a0 ::
         :: HOMO-LUMO gap              1.400221048571 eV    ::
         :: SCC energy               -87.838553340244 Eh    ::
         :: -> Gsolv                  -0.118452003187 Eh    ::
         :: repulsion energy           0.826524997967 Eh    ::

    * Orbital Energies and Occupations

         #    Occupation            Energy/Eh            Energy/eV
      -------------------------------------------------------------
         1        2.0000           -0.8538876             -23.2355
       ...           ...                  ...                  ...
        59        2.0000           -0.4667338             -12.7005
        60        2.0000           -0.4635543             -12.6140
        61        2.0000           -0.4568265             -12.4309
        62        2.0000           -0.4489368             -12.2162
        63        2.0000           -0.4487754             -12.2118
        64        2.0000           -0.4436023             -12.0710
        65        2.0000           -0.4373178             -11.9000
        66        2.0000           -0.4288142             -11.6686
        67        2.0000           -0.4120713             -11.2130
        68        2.0000           -0.3950453             -10.7497
        69        2.0000           -0.3717224             -10.1151
        70        2.0000           -0.3603045              -9.8044
        71        2.0000           -0.3462980              -9.4232 (HOMO)
        72                         -0.2948408              -8.0230 (LUMO)
        73                         -0.2668219              -7.2606
        74                         -0.2481204              -6.7517
        75                         -0.2237662              -6.0890
        76                         -0.1834231              -4.9912
        77                         -0.1403149              -3.8182
        78                         -0.1395031              -3.7961
        79                         -0.1275129              -3.4698
        80                         -0.1238642              -3.3705
        81                         -0.1143125              -3.1106
        82                         -0.0989993              -2.6939
       ...                                ...                  ...
       144                          0.7312540              19.8984
      -------------------------------------------------------------
                  HL-Gap            0.0514572 Eh            1.4002 eV

Wiberg/Mayer (AO) data.
largest (>0.10) Wiberg bond orders for each atom

     #   Z sym  total        # sym  WBO       # sym  WBO       # sym  WBO
 ---------------------------------------------------------------------------
     1   6 C    3.884 --    28 H    0.987    29 H    0.981    27 H    0.981
                             2 O    0.907
     2   8 O    2.165 --     3 C    1.031     1 C    0.907     4 O    0.110
     3   6 C    3.838 --     4 O    1.617     5 C    1.078     2 O    1.031
     4   8 O    1.891 --     3 C    1.617     2 O    0.110
     5   6 C    3.943 --     6 C    1.565     3 C    1.078    26 N    1.063
     6   6 C    3.870 --     5 C    1.565     7 O    1.096     8 C    0.899
     7   8 O    2.082 --     6 C    1.096    30 H    0.820
     8   6 C    3.923 --    10 O    1.294     9 C    0.923     6 C    0.899
                            11 N    0.720
     9   6 C    3.990 --    33 H    0.990    31 H    0.985    32 H    0.985
                             8 C    0.923
    10   8 O    1.590 --     8 C    1.294
    11   7 N    3.344 --    13 C    1.281    12 C    0.965     8 C    0.720
                            26 N    0.172
    12   6 C    3.959 --    34 H    0.981    35 H    0.974    36 H    0.965
                            11 N    0.965
    13   6 C    3.951 --    26 N    1.544    11 N    1.281    14 C    0.956
    14   6 C    3.931 --    16 C    0.988    15 C    0.985    13 C    0.956
                            17 N    0.925
    15   6 C    3.993 --    38 H    0.986    14 C    0.985    37 H    0.981
                            39 H    0.979
    16   6 C    3.993 --    14 C    0.988    41 H    0.986    42 H    0.982
                            40 H    0.980
    17   7 N    3.388 --    18 C    1.309    14 C    0.925    43 H    0.854
                            19 O    0.189
    18   6 C    3.925 --    19 O    1.555    17 N    1.309    20 C    0.980
    19   8 O    1.881 --    18 C    1.555    17 N    0.189
    20   6 C    3.869 --    21 N    1.622    25 O    1.058    18 C    0.980
    21   7 N    3.011 --    20 C    1.622    22 N    1.191
    22   7 N    2.981 --    23 C    1.616    21 N    1.191
    23   6 C    3.875 --    22 N    1.616    25 O    1.080    24 C    1.030
    24   6 C    3.988 --    23 C    1.030    46 H    0.983    45 H    0.966
                            44 H    0.964
    25   8 O    2.322 --    23 C    1.080    20 C    1.058
    26   7 N    3.014 --    13 C    1.544     5 C    1.063    11 N    0.172
    27   1 H    1.012 --     1 C    0.981
    28   1 H    1.013 --     1 C    0.987
    29   1 H    1.012 --     1 C    0.981
    30   1 H    0.876 --     7 O    0.820
    31   1 H    1.013 --     9 C    0.985
    32   1 H    1.014 --     9 C    0.985
    33   1 H    1.009 --     9 C    0.990
    34   1 H    1.012 --    12 C    0.981
    35   1 H    1.012 --    12 C    0.974
    36   1 H    1.026 --    12 C    0.965
    37   1 H    1.011 --    15 C    0.981
    38   1 H    1.006 --    15 C    0.986
    39   1 H    1.007 --    15 C    0.979
    40   1 H    1.011 --    16 C    0.980
    41   1 H    1.005 --    16 C    0.986
    42   1 H    1.008 --    16 C    0.982
    43   1 H    0.983 --    17 N    0.854
    44   1 H    0.998 --    24 C    0.964
    45   1 H    0.998 --    24 C    0.966
    46   1 H    1.000 --    24 C    0.983
 ---------------------------------------------------------------------------

           -------------------------------------------------
          | TOTAL ENERGY              -87.041836829782 Eh   |
          | GRADIENT NORM               0.000823903974 Eh/α |
          | HOMO-LUMO GAP               1.400221048571 eV   |
           -------------------------------------------------

 * finished run on 2023/06/20 at 15:32:29.781
