   * xtb version 6.5.1 (579679a) compiled by 'ehlert@majestix' on 2022-07-11
          program call               : /lustre/hpc/kemi/ree/PhD/git/ReactivityQM/dep/xtb-6.5.1/bin/xtb --gfn 1 /lustre/hpc/kemi/ree/PhD/git/ReactivityQM/calculations/RaltegravirCLI/reac02prodN08/conf15/RaltegravirCLI_reac02prodN08_conf15_gfn1.xyz --opt --vfukui --chrg 1 --uhf 0 --alpb DMSO

   ID    Z sym.   atoms
    1    6 C      1, 3-6, 9, 10, 13-18, 20-22, 24
    2    7 N      2, 7, 8, 12
    3    8 O      11, 23, 25
    4    9 F      19
    5    1 H      26-47

      * Solvation model:               ALPB
        Solvent                        DMSO
        Solvent mass                       7.8130E+01 g/mol
          :  Hamiltonian                  GFN1-xTB          :
 * total energy  :   -79.4683405 Eh     change       -0.7020162E-11 Eh
 * total energy  :   -79.4774260 Eh     change       -0.9085507E-02 Eh
 * total energy  :   -79.4801489 Eh     change       -0.2722949E-02 Eh
 * total energy  :   -79.4806328 Eh     change       -0.4838115E-03 Eh
 * total energy  :   -79.4812624 Eh     change       -0.6296320E-03 Eh
 * total energy  :   -79.4816958 Eh     change       -0.4333855E-03 Eh
 * total energy  :   -79.4821852 Eh     change       -0.4894668E-03 Eh
 * total energy  :   -79.4827392 Eh     change       -0.5540004E-03 Eh
 * total energy  :   -79.4831992 Eh     change       -0.4599362E-03 Eh
 * total energy  :   -79.4834322 Eh     change       -0.2329798E-03 Eh
 * total energy  :   -79.4842415 Eh     change       -0.3737788E-04 Eh
 * total energy  :   -79.4842623 Eh     change       -0.2075071E-04 Eh
 * total energy  :   -79.4842747 Eh     change       -0.1244414E-04 Eh
 * total energy  :   -79.4842833 Eh     change       -0.8564557E-05 Eh
 * total energy  :   -79.4842896 Eh     change       -0.6352169E-05 Eh
 * total energy  :   -79.4842952 Eh     change       -0.5598424E-05 Eh
 * total energy  :   -79.4843019 Eh     change       -0.6643867E-05 Eh
 * total energy  :   -79.4843090 Eh     change       -0.7166191E-05 Eh
 * total energy  :   -79.4843136 Eh     change       -0.4616961E-05 Eh
   *** GEOMETRY OPTIMIZATION CONVERGED AFTER 39 ITERATIONS ***

 final structure:
================
47
 xtb: 6.5.1 (579679a)
C           -3.86456421614696       -1.88681723451778        1.96582605056827
N           -2.75199291152354       -1.30815163819460        1.20477695855569
C           -2.90109241919499       -0.29307202490262        0.29400817227455
C           -4.25261945859611        0.34301595332157       -0.00464769574892
C           -4.55337354875005        1.39540753631036        1.07339643442009
C           -4.19231667755133        1.02877932999094       -1.38101279154434
N           -5.30304746556725       -0.66661402476352       -0.00902546995486
N           -1.88700227417689        0.21772796121281       -0.33556785954942
C           -0.62237985500952       -0.25776649964539       -0.15490432548900
C            0.44391201157565        0.46503372203663       -0.90069372977543
O            0.34371779230889        1.61322999588397       -1.28563510551136
N            1.57618473047648       -0.28076795260579       -1.14078253639414
C            2.73752583848138        0.31555355185267       -1.67488260551051
C            3.75105559986364        0.78613134625714       -0.48219404580193
C            2.96113785236023        1.76473436724582        0.40918163081720
C            4.12163711937017       -0.44572416749201        0.22470254408999
C            5.35895821906278       -1.00931401558178        0.11485968518755
C            6.32956197477197       -0.34933872276147       -0.64898649184394
F            7.51571144289684       -0.89044092390556       -0.75364822040745
C            6.09580504989132        0.87355122342004       -1.29033435849428
C            4.86103898100351        1.44472259552640       -1.18065711001158
C           -0.40810525716048       -1.28754032158425        0.71452962654671
O            0.80396485833722       -1.81468427120162        0.98434030242603
C           -1.51492393270766       -1.87284851314927        1.44868474734593
O           -1.34091228518724       -2.79962955211977        2.23454838327034
H           -3.45014331508095       -2.38635311896416        2.84122802072876
H           -4.55141934593947       -1.10669058593814        2.27667854474213
H           -4.39269777213381       -2.60888965042248        1.34527762420340
H           -4.65886170232314        0.93432683697287        2.05375504164703
H           -5.48126459330879        1.91101639809370        0.82949473296531
H           -3.74417078088700        2.12371555785624        1.11347428466508
H           -3.91385720257228        0.30629368216806       -2.14651842882521
H           -3.45830669986684        1.83336939347896       -1.37392468321895
H           -5.17126545180979        1.43991669014237       -1.62084553301811
H           -5.20632917897376       -1.25675339143981       -0.82458871811147
H           -6.20604539426229       -0.21504669345697       -0.05331851789858
H            1.64355761679047       -1.22370743404257       -0.79402119670692
H            3.28101363579077       -0.39039129379021       -2.29854938143138
H            2.47064520692790        1.21685600758408       -2.22948590102888
H            3.62624009721578        2.16314646697421        1.17251867072725
H            2.14164484132619        1.23631490929020        0.89162115040568
H            2.56374070044030        2.58206591853356       -0.18993542504769
H            3.34887292192226       -0.92800100214224        0.81299934062695
H            5.61015981024766       -1.93734183529820        0.61336492974918
H            6.90066256098649        1.35170816635663       -1.83517453317993
H            4.65968498883663        2.40158158151549       -1.64872980594302
H            0.68025888783970       -2.53231532410792        1.63879959448887

          :  Hamiltonian                  GFN1-xTB          :
         :: total energy             -79.484313637853 Eh    ::
         :: gradient norm              0.000499129152 Eh/a0 ::
         :: HOMO-LUMO gap              0.224624052084 eV    ::
         :: SCC energy               -80.368380834737 Eh    ::
         :: -> Gsolv                  -0.103381089071 Eh    ::
         :: repulsion energy           0.915406500573 Eh    ::

    * Orbital Energies and Occupations

         #    Occupation            Energy/Eh            Energy/eV
      -------------------------------------------------------------
         1        2.0000           -0.9367904             -25.4914
       ...           ...                  ...                  ...
        55        2.0000           -0.5190649             -14.1245
        56        2.0000           -0.5154652             -14.0265
        57        2.0000           -0.5139001             -13.9839
        58        2.0000           -0.5070175             -13.7966
        59        2.0000           -0.5004543             -13.6181
        60        2.0000           -0.4929623             -13.4142
        61        2.0000           -0.4890309             -13.3072
        62        2.0000           -0.4780899             -13.0095
        63        2.0000           -0.4721887             -12.8489
        64        2.0000           -0.4630790             -12.6010
        65        2.0000           -0.4497104             -12.2372
        66        2.0000           -0.4337289             -11.8024
        67        1.9744           -0.4194576             -11.4140 (HOMO)
        68        0.0256           -0.4112028             -11.1894 (LUMO)
        69                         -0.3294925              -8.9659
        70                         -0.3273630              -8.9080
        71                         -0.2866217              -7.7994
        72                         -0.2530973              -6.8871
        73                         -0.2430231              -6.6130
        74                         -0.1677640              -4.5651
        75                         -0.1521593              -4.1405
        76                         -0.1471501              -4.0042
        77                         -0.1368864              -3.7249
        78                         -0.1361348              -3.7044
       ...                                ...                  ...
       144                          0.7054057              19.1951
      -------------------------------------------------------------
                  HL-Gap            0.0082548 Eh            0.2246 eV

Wiberg/Mayer (AO) data.
largest (>0.10) Wiberg bond orders for each atom

     #   Z sym  total        # sym  WBO       # sym  WBO       # sym  WBO
 ---------------------------------------------------------------------------
     1   6 C    3.916 --    27 H    0.978    26 H    0.976    28 H    0.974
                             2 N    0.923
     2   7 N    3.521 --     3 C    1.180    24 C    1.138     1 C    0.923
                            25 O    0.135
     3   6 C    3.916 --     8 N    1.553     2 N    1.180     4 C    0.977
     4   6 C    3.962 --     6 C    0.986     7 N    0.985     5 C    0.980
                             3 C    0.977
     5   6 C    3.992 --    31 H    0.985    30 H    0.982     4 C    0.980
                            29 H    0.980
     6   6 C    3.989 --     4 C    0.986    34 H    0.985    32 H    0.985
                            33 H    0.982
     7   7 N    2.966 --     4 C    0.985    35 H    0.938    36 H    0.935
     8   7 N    3.027 --     3 C    1.553     9 C    1.202
     9   6 C    3.965 --    22 C    1.495     8 N    1.202    10 C    1.005
    10   6 C    3.886 --    11 O    1.635    12 N    1.150     9 C    1.005
    11   8 O    1.923 --    10 C    1.635    12 N    0.132
    12   7 N    3.370 --    10 C    1.150    13 C    1.047    37 H    0.881
                            11 O    0.132
    13   6 C    3.928 --    12 N    1.047    38 H    0.976    39 H    0.963
                            14 C    0.759
    14   6 C    3.980 --    21 C    1.103    16 C    1.103    15 C    0.939
                            13 C    0.759
    15   6 C    3.970 --    40 H    0.981    42 H    0.980    41 H    0.980
                            14 C    0.939
    16   6 C    3.941 --    17 C    1.593    14 C    1.103    43 H    0.961
    17   6 C    3.984 --    16 C    1.593    18 C    1.298    44 H    0.957
    18   6 C    3.818 --    20 C    1.298    17 C    1.298    19 F    1.024
    19   9 F    1.175 --    18 C    1.024
    20   6 C    3.983 --    21 C    1.592    18 C    1.298    45 H    0.957
    21   6 C    3.938 --    20 C    1.592    14 C    1.103    46 H    0.964
    22   6 C    3.909 --     9 C    1.495    24 C    1.084    23 O    1.074
    23   8 O    2.067 --    22 C    1.074    47 H    0.793
    24   6 C    3.918 --    25 O    1.549     2 N    1.138    22 C    1.084
    25   8 O    1.896 --    24 C    1.549     2 N    0.135
    26   1 H    1.007 --     1 C    0.976
    27   1 H    1.021 --     1 C    0.978
    28   1 H    1.015 --     1 C    0.974
    29   1 H    1.004 --     5 C    0.980
    30   1 H    0.999 --     5 C    0.982
    31   1 H    1.003 --     5 C    0.985
    32   1 H    1.006 --     6 C    0.985
    33   1 H    1.013 --     6 C    0.982
    34   1 H    1.003 --     6 C    0.985
    35   1 H    0.953 --     7 N    0.938
    36   1 H    0.950 --     7 N    0.935
    37   1 H    0.935 --    12 N    0.881
    38   1 H    0.999 --    13 C    0.976
    39   1 H    1.003 --    13 C    0.963
    40   1 H    0.997 --    15 C    0.981
    41   1 H    0.999 --    15 C    0.980
    42   1 H    1.001 --    15 C    0.980
    43   1 H    1.000 --    16 C    0.961
    44   1 H    0.986 --    17 C    0.957
    45   1 H    0.986 --    20 C    0.957
    46   1 H    0.990 --    21 C    0.964
    47   1 H    0.838 --    23 O    0.793
 ---------------------------------------------------------------------------

           -------------------------------------------------
          | TOTAL ENERGY              -79.484313637853 Eh   |
          | GRADIENT NORM               0.000499129152 Eh/α |
          | HOMO-LUMO GAP               0.224624052084 eV   |
           -------------------------------------------------

 * finished run on 2023/06/20 at 15:27:02.929
