   * xtb version 6.5.1 (579679a) compiled by 'ehlert@majestix' on 2022-07-11
          program call               : /lustre/hpc/kemi/ree/PhD/git/ReactivityQM/dep/xtb-6.5.1/bin/xtb --gfn 1 /lustre/hpc/kemi/ree/PhD/git/ReactivityQM/calculations/R03/reac02prodN11/conf06/R03_reac02prodN11_conf06_gfn1.xyz --opt --vfukui --chrg 1 --uhf 0 --alpb DMSO

   ID    Z sym.   atoms
    1    6 C      1, 3, 5, 7-10, 12, 13, 15, 18, 19, 22, 23, 25
    2    8 O      2, 4, 14, 20, 24, 26
    3    7 N      6, 11, 16, 17, 21
    4    1 H      27-46

      * Solvation model:               ALPB
        Solvent                        DMSO
        Solvent mass                       7.8130E+01 g/mol
          :  Hamiltonian                  GFN1-xTB          :
 * total energy  :   -86.2008539 Eh     change       -0.5878036E-09 Eh
 * total energy  :   -86.2173710 Eh     change       -0.1651704E-01 Eh
 * total energy  :   -86.2247222 Eh     change       -0.7351249E-02 Eh
 * total energy  :   -86.2266609 Eh     change       -0.1938696E-02 Eh
 * total energy  :   -86.2282943 Eh     change       -0.1633415E-02 Eh
 * total energy  :   -86.2292257 Eh     change       -0.9313501E-03 Eh
 * total energy  :   -86.2300204 Eh     change       -0.7947463E-03 Eh
 * total energy  :   -86.2306001 Eh     change       -0.5796545E-03 Eh
 * total energy  :   -86.2309386 Eh     change       -0.3385125E-03 Eh
 * total energy  :   -86.2311562 Eh     change       -0.2175903E-03 Eh
 * total energy  :   -86.2362397 Eh     change       -0.8147033E-05 Eh
 * total energy  :   -86.2362470 Eh     change       -0.7223528E-05 Eh
 * total energy  :   -86.2362549 Eh     change       -0.7949678E-05 Eh
 * total energy  :   -86.2362627 Eh     change       -0.7786341E-05 Eh
 * total energy  :   -86.2362691 Eh     change       -0.6420531E-05 Eh
 * total energy  :   -86.2362755 Eh     change       -0.6337420E-05 Eh
 * total energy  :   -86.2362770 Eh     change       -0.1533286E-05 Eh
 * total energy  :   -86.2362849 Eh     change       -0.7938698E-05 Eh
 * total energy  :   -86.2362896 Eh     change       -0.4699858E-05 Eh
   *** GEOMETRY OPTIMIZATION CONVERGED AFTER 79 ITERATIONS ***

 final structure:
================
46
 xtb: 6.5.1 (579679a)
C            5.10953974184664        1.29813623961566        3.29761396879338
O            4.08762127473995        0.90300234313600        2.36875180802733
C            4.29365526621849        1.18900956063302        1.10124089254992
O            5.28366172664845        1.75526575893007        0.67844224819244
C            3.19577832856885        0.75174209848276        0.19570377552646
N            2.10598557168183        0.16148289253836        0.73604748502084
C            1.13618001286991       -0.27266094167258       -0.01347112306052
C            0.03822626628318       -1.04024290894266        0.72947198821056
C            0.07764128108302       -0.61041612815187        2.20932521028650
C            0.31105527106065       -2.54177749547525        0.61999364714114
N           -1.25410477327918       -0.62033128079357        0.23579492735305
C           -2.31325690973250       -1.43926652279496       -0.24939007145179
C           -3.22178711825308       -1.57135319808063        1.16676614132290
O           -2.09992110515713       -2.58250497326350       -0.70843784651221
C           -3.32980654236451       -0.55204393194597       -0.94498148184107
N           -4.17228444232660       -0.88997442184630       -1.87022849642533
N           -4.84264608498980        0.23723462842564       -2.19506328612449
C           -4.40843825744877        1.19051928425264       -1.42024486313934
C           -4.82803090121200        2.60244596630196       -1.38736227825113
O           -3.44171788580090        0.74214757014725       -0.59753030345083
N            1.12404734092538       -0.10490188112395       -1.36005386521012
C            0.01212446685830       -0.55399780584978       -2.19648860538464
C            2.17186520637982        0.54641264843280       -2.03785038910467
O            2.14388099059609        0.70424569479818       -3.24030755453159
C            3.27440052180471        0.97156588675893       -1.16630994873834
O            4.27924971176516        1.58329476236293       -1.75963681369898
H            5.24292609767732        2.38099789675709        3.25983105541535
H            4.76567873774026        0.98762602318667        4.28151885329656
H            6.04952521349798        0.80408046133845        3.04345777743060
H           -0.07320834379998        0.46331478130220        2.29672800996712
H           -0.70210798779595       -1.13064453157360        2.75974900964301
H            1.05027563987753       -0.86569106437703        2.62624069164328
H           -0.45317069246107       -3.10158969365889        1.15379308788748
H            1.27970037290233       -2.74089870389554        1.07764656781077
H            0.33824707197175       -2.87574444284859       -0.41410607279491
H           -1.51377710872866        0.32554782549904        0.48002266966840
H           -3.40996392246002       -0.58958093346148        1.58087668142371
H           -2.59644499995204       -2.18270818754468        1.80638079863248
H           -4.12751835404548       -2.08872863562934        0.86914543356066
H           -5.58787734590006        2.78070667743106       -2.14464808711148
H           -5.22414176531300        2.84372008331447       -0.40065558674505
H           -3.96856808033219        3.24890527308642       -1.56441179028499
H           -0.25590687434558       -1.57763401654885       -1.94963074466351
H           -0.83690813715411        0.10935869439048       -2.03674283488420
H            0.32411911035296       -0.49695674577702       -3.23858183414196
H            4.96620240951300        1.84888439413233       -1.09771485125530

          :  Hamiltonian                  GFN1-xTB          :
         :: total energy             -86.236289624722 Eh    ::
         :: gradient norm              0.000819055770 Eh/a0 ::
         :: HOMO-LUMO gap              0.157087270806 eV    ::
         :: SCC energy               -87.052645140920 Eh    ::
         :: -> Gsolv                  -0.117181281817 Eh    ::
         :: repulsion energy           0.846772858068 Eh    ::

    * Orbital Energies and Occupations

         #    Occupation            Energy/Eh            Energy/eV
      -------------------------------------------------------------
         1        2.0000           -0.9009441             -24.5159
       ...           ...                  ...                  ...
        58        2.0000           -0.5277358             -14.3604
        59        2.0000           -0.5261452             -14.3171
        60        2.0000           -0.5127073             -13.9515
        61        2.0000           -0.5125902             -13.9483
        62        2.0000           -0.5117885             -13.9265
        63        2.0000           -0.5042572             -13.7215
        64        2.0000           -0.5016826             -13.6515
        65        2.0000           -0.4961982             -13.5022
        66        2.0000           -0.4898512             -13.3295
        67        2.0000           -0.4822658             -13.1231
        68        2.0000           -0.4797052             -13.0534
        69        2.0000           -0.4719307             -12.8419
        70        1.9085           -0.4552653             -12.3884 (HOMO)
        71        0.0915           -0.4494924             -12.2313 (LUMO)
        72                         -0.3507680              -9.5449
        73                         -0.3165213              -8.6130
        74                         -0.3062933              -8.3347
        75                         -0.2837368              -7.7209
        76                         -0.2660883              -7.2406
        77                         -0.1879704              -5.1149
        78                         -0.1676996              -4.5633
        79                         -0.1554968              -4.2313
        80                         -0.1507072              -4.1010
        81                         -0.1478595              -4.0235
       ...                                ...                  ...
       144                          0.7040611              19.1585
      -------------------------------------------------------------
                  HL-Gap            0.0057729 Eh            0.1571 eV

Wiberg/Mayer (AO) data.
largest (>0.10) Wiberg bond orders for each atom

     #   Z sym  total        # sym  WBO       # sym  WBO       # sym  WBO
 ---------------------------------------------------------------------------
     1   6 C    3.853 --    28 H    0.985    27 H    0.978    29 H    0.978
                             2 O    0.880
     2   8 O    2.232 --     3 C    1.161     1 C    0.880     4 O    0.138
     3   6 C    3.853 --     4 O    1.616     2 O    1.161     5 C    0.999
     4   8 O    1.953 --     3 C    1.616     2 O    0.138
     5   6 C    3.912 --    25 C    1.404     6 N    1.238     3 C    0.999
     6   7 N    3.005 --     7 C    1.498     5 C    1.238
     7   6 C    3.908 --     6 N    1.498    21 N    1.228     8 C    0.940
     8   6 C    3.910 --    10 C    0.981    11 N    0.954     9 C    0.951
                             7 C    0.940
     9   6 C    3.967 --    31 H    0.982    30 H    0.981    32 H    0.969
                             8 C    0.951
    10   6 C    3.979 --     8 C    0.981    34 H    0.980    33 H    0.977
                            35 H    0.975
    11   7 N    3.422 --    12 C    1.011     8 C    0.954    36 H    0.883
                            14 O    0.225
    12   6 C    3.905 --    14 O    1.371    11 N    1.011    15 C    0.887
                            13 C    0.554
    13   6 C    3.749 --    37 H    0.984    39 H    0.974    38 H    0.972
                            12 C    0.554
    14   8 O    1.834 --    12 C    1.371    11 N    0.225
    15   6 C    3.842 --    16 N    1.583    20 O    1.060    12 C    0.887
    16   7 N    2.985 --    15 C    1.583    17 N    1.218
    17   7 N    2.996 --    18 C    1.560    16 N    1.218
    18   6 C    3.832 --    17 N    1.560    20 O    1.058    19 C    1.042
    19   6 C    3.976 --    18 C    1.042    40 H    0.979    42 H    0.953
                            41 H    0.951
    20   8 O    2.321 --    15 C    1.060    18 C    1.058
    21   7 N    3.505 --     7 C    1.228    23 C    1.072    22 C    0.924
                            24 O    0.120
    22   6 C    3.906 --    43 H    0.971    45 H    0.967    44 H    0.966
                            21 N    0.924
    23   6 C    3.888 --    24 O    1.634    21 N    1.072    25 C    1.046
    24   8 O    1.910 --    23 C    1.634    21 N    0.120
    25   6 C    3.846 --     5 C    1.404    26 O    1.180    23 C    1.046
    26   8 O    2.096 --    25 C    1.180    46 H    0.755
    27   1 H    1.003 --     1 C    0.978
    28   1 H    1.008 --     1 C    0.985
    29   1 H    1.003 --     1 C    0.978
    30   1 H    0.998 --     9 C    0.981
    31   1 H    0.997 --     9 C    0.982
    32   1 H    1.006 --     9 C    0.969
    33   1 H    1.002 --    10 C    0.977
    34   1 H    0.998 --    10 C    0.980
    35   1 H    1.008 --    10 C    0.975
    36   1 H    0.927 --    11 N    0.883
    37   1 H    0.991 --    13 C    0.984
    38   1 H    0.992 --    13 C    0.972
    39   1 H    0.991 --    13 C    0.974
    40   1 H    0.994 --    19 C    0.979
    41   1 H    0.988 --    19 C    0.951
    42   1 H    0.989 --    19 C    0.953
    43   1 H    1.002 --    22 C    0.971
    44   1 H    0.997 --    22 C    0.966
    45   1 H    0.999 --    22 C    0.967
    46   1 H    0.835 --    26 O    0.755
 ---------------------------------------------------------------------------

           -------------------------------------------------
          | TOTAL ENERGY              -86.236289624722 Eh   |
          | GRADIENT NORM               0.000819055770 Eh/α |
          | HOMO-LUMO GAP               0.157087270806 eV   |
           -------------------------------------------------

 * finished run on 2023/06/20 at 15:46:48.712
