   * xtb version 6.5.1 (579679a) compiled by 'ehlert@majestix' on 2022-07-11
          program call               : /lustre/hpc/kemi/ree/PhD/git/ReactivityQM/dep/xtb-6.5.1/bin/xtb --gfn 1 /lustre/hpc/kemi/ree/PhD/git/ReactivityQM/calculations/R01/reac01prodN08/conf09/R01_reac01prodN08_conf09_gfn1.xyz --opt --vfukui --chrg 1 --uhf 0 --alpb DMSO

   ID    Z sym.   atoms
    1    6 C      1, 2, 5, 6, 9, 10
    2    7 N      3, 4
    3    8 O      7, 8, 11
    4    1 H      12-20

      * Solvation model:               ALPB
        Solvent                        DMSO
        Solvent mass                       7.8130E+01 g/mol
          :  Hamiltonian                  GFN1-xTB          :
 * total energy  :   -37.5751341 Eh     change       -0.8313350E-11 Eh
 * total energy  :   -37.5830182 Eh     change       -0.7884062E-02 Eh
 * total energy  :   -37.5853367 Eh     change       -0.2318533E-02 Eh
 * total energy  :   -37.5857399 Eh     change       -0.4031746E-03 Eh
 * total energy  :   -37.5859618 Eh     change       -0.2218483E-03 Eh
 * total energy  :   -37.5861402 Eh     change       -0.1784408E-03 Eh
 * total energy  :   -37.5863020 Eh     change       -0.1617780E-03 Eh
 * total energy  :   -37.5864469 Eh     change       -0.1449506E-03 Eh
 * total energy  :   -37.5865575 Eh     change       -0.1105831E-03 Eh
 * total energy  :   -37.5866413 Eh     change       -0.8381543E-04 Eh
 * total energy  :   -37.5872012 Eh     change       -0.1466621E-04 Eh
 * total energy  :   -37.5872075 Eh     change       -0.6297543E-05 Eh
 * total energy  :   -37.5872173 Eh     change       -0.9765614E-05 Eh
 * total energy  :   -37.5872247 Eh     change       -0.7405605E-05 Eh
 * total energy  :   -37.5872325 Eh     change       -0.7863189E-05 Eh
 * total energy  :   -37.5871894 Eh     change        0.4310161E-04 Eh
 * total energy  :   -37.5872430 Eh     change       -0.5355303E-04 Eh
 * total energy  :   -37.5872481 Eh     change       -0.5158348E-05 Eh
 * total energy  :   -37.5872513 Eh     change       -0.3175061E-05 Eh
   *** GEOMETRY OPTIMIZATION CONVERGED AFTER 46 ITERATIONS ***

 final structure:
================
20
 xtb: 6.5.1 (579679a)
C            3.42752088237734        0.72897218174111        0.60491144952579
C            2.40988377420932       -0.25111222648889        0.18910070670026
N            2.58907422006062       -1.50754562975078       -0.13425035410450
N            1.39119292019127       -2.01152667887636       -0.44124154205177
C            0.51816700566388       -1.04667319871188       -0.29339963734755
C           -0.88731799122988       -1.19025018528017       -0.57503949746911
O           -1.44110629875664       -2.15017451561543       -0.99670327804066
O           -1.67920342176622        0.00737490064287       -0.37216349527270
C           -3.08438807624885       -0.09170074044379       -0.77475155649690
C           -1.35108634365546        1.02773696667989        0.62828253030602
O            1.12177764712697        0.09198911221047        0.10670128648598
H            4.41907378165777        0.29031635846436        0.52534132485726
H            3.35942991202571        1.61876085722997       -0.01980231686286
H            3.24207527882183        1.03298725825800        1.63514201759321
H           -3.65436793788568       -0.54205709181618        0.03631403586424
H           -3.11266681785041       -0.70896097746001       -1.67003174696615
H           -3.41377919939676        0.92079188442466       -0.98852000098072
H           -0.87757819827897        0.54179346461489        1.47720946777814
H           -0.68804176315893        1.74977766400101        0.15708049538271
H           -2.28865937390736        1.48950159617615        0.92404111109996

          :  Hamiltonian                  GFN1-xTB          :
         :: total energy             -37.587251324567 Eh    ::
         :: gradient norm              0.000841745385 Eh/a0 ::
         :: HOMO-LUMO gap              2.941551286757 eV    ::
         :: SCC energy               -37.934614814641 Eh    ::
         :: -> Gsolv                  -0.093817839174 Eh    ::
         :: repulsion energy           0.355983622028 Eh    ::

    * Orbital Energies and Occupations

         #    Occupation            Energy/Eh            Energy/eV
      -------------------------------------------------------------
         1        2.0000           -0.9468564             -25.7653
       ...           ...                  ...                  ...
        18        2.0000           -0.6232780             -16.9603
        19        2.0000           -0.5925372             -16.1238
        20        2.0000           -0.5869807             -15.9726
        21        2.0000           -0.5767464             -15.6941
        22        2.0000           -0.5743427             -15.6287
        23        2.0000           -0.5694848             -15.4965
        24        2.0000           -0.5621031             -15.2956
        25        2.0000           -0.5526299             -15.0378
        26        2.0000           -0.5518339             -15.0162
        27        2.0000           -0.5480935             -14.9144
        28        2.0000           -0.5222768             -14.2119
        29        2.0000           -0.4971209             -13.5273
        30        2.0000           -0.4933168             -13.4238 (HOMO)
        31                         -0.3852167             -10.4823 (LUMO)
        32                         -0.2956114              -8.0440
        33                         -0.2609446              -7.1007
        34                         -0.1944110              -5.2902
        35                         -0.1735476              -4.7225
        36                         -0.1582504              -4.3062
        37                         -0.1384625              -3.7678
        38                         -0.1208003              -3.2871
        39                         -0.1116150              -3.0372
        40                         -0.1062935              -2.8924
        41                         -0.0931154              -2.5338
       ...                                ...                  ...
        62                          0.7258798              19.7522
      -------------------------------------------------------------
                  HL-Gap            0.1081000 Eh            2.9416 eV

Wiberg/Mayer (AO) data.
largest (>0.10) Wiberg bond orders for each atom

     #   Z sym  total        # sym  WBO       # sym  WBO       # sym  WBO
 ---------------------------------------------------------------------------
     1   6 C    3.976 --     2 C    1.043    12 H    0.979    13 H    0.955
                            14 H    0.948
     2   6 C    3.847 --     3 N    1.520    11 O    1.096     1 C    1.043
     3   7 N    2.994 --     2 C    1.520     4 N    1.288
     4   7 N    3.020 --     5 C    1.526     3 N    1.288
     5   6 C    3.887 --     4 N    1.526     6 C    1.083    11 O    1.044
     6   6 C    3.826 --     7 O    1.777     5 C    1.083     8 O    0.825
     7   8 O    2.060 --     6 C    1.777
     8   8 O    2.523 --     6 C    0.825     9 C    0.785    10 C    0.779
     9   6 C    3.757 --    15 H    0.978    17 H    0.977    16 H    0.970
                             8 O    0.785
    10   6 C    3.757 --    18 H    0.977    19 H    0.975    20 H    0.975
                             8 O    0.779
    11   8 O    2.341 --     2 C    1.096     5 C    1.044
    12   1 H    0.993 --     1 C    0.979
    13   1 H    0.990 --     1 C    0.955
    14   1 H    0.990 --     1 C    0.948
    15   1 H    0.989 --     9 C    0.978
    16   1 H    0.994 --     9 C    0.970
    17   1 H    0.992 --     9 C    0.977
    18   1 H    0.995 --    10 C    0.977
    19   1 H    0.999 --    10 C    0.975
    20   1 H    0.990 --    10 C    0.975
 ---------------------------------------------------------------------------

           -------------------------------------------------
          | TOTAL ENERGY              -37.587251324567 Eh   |
          | GRADIENT NORM               0.000841745385 Eh/α |
          | HOMO-LUMO GAP               2.941551286757 eV   |
           -------------------------------------------------

 * finished run on 2023/06/20 at 14:56:49.852
