   * xtb version 6.5.1 (579679a) compiled by 'ehlert@majestix' on 2022-07-11
          program call               : /lustre/hpc/kemi/ree/PhD/git/ReactivityQM/dep/xtb-6.5.1/bin/xtb --gfn 1 /lustre/hpc/kemi/ree/PhD/git/ReactivityQM/calculations/R02oxygendeprot/reac01prodN02/conf02/R02oxygendeprot_reac01prodN02_conf02_gfn1.xyz --opt --vfukui --chrg 0 --uhf 0 --alpb DMSO

   ID    Z sym.   atoms
    1    6 C      1, 3, 5, 7-10, 12, 14, 15, 18, 19, 22, 24
    2    8 O      2, 4, 13, 20, 23, 25
    3    7 N      6, 11, 16, 17, 21
    4    1 H      26-42

      * Solvation model:               ALPB
        Solvent                        DMSO
        Solvent mass                       7.8130E+01 g/mol
          :  Hamiltonian                  GFN1-xTB          :
 * total energy  :   -82.9416177 Eh     change       -0.7189271E-10 Eh
 * total energy  :   -82.9599058 Eh     change       -0.1828813E-01 Eh
 * total energy  :   -82.9677035 Eh     change       -0.7797660E-02 Eh
 * total energy  :   -82.9689079 Eh     change       -0.1204410E-02 Eh
 * total energy  :   -82.9696939 Eh     change       -0.7860398E-03 Eh
 * total energy  :   -82.9699966 Eh     change       -0.3026465E-03 Eh
 * total energy  :   -82.9702861 Eh     change       -0.2895723E-03 Eh
 * total energy  :   -82.9704930 Eh     change       -0.2068119E-03 Eh
 * total energy  :   -82.9706500 Eh     change       -0.1569989E-03 Eh
 * total energy  :   -82.9707756 Eh     change       -0.1256972E-03 Eh
 * total energy  :   -82.9714374 Eh     change       -0.1226890E-04 Eh
 * total energy  :   -82.9714486 Eh     change       -0.1120148E-04 Eh
 * total energy  :   -82.9714580 Eh     change       -0.9376723E-05 Eh
 * total energy  :   -82.9714648 Eh     change       -0.6837288E-05 Eh
 * total energy  :   -82.9714703 Eh     change       -0.5475014E-05 Eh
 * total energy  :   -82.9714760 Eh     change       -0.5717532E-05 Eh
 * total energy  :   -82.9714823 Eh     change       -0.6254779E-05 Eh
 * total energy  :   -82.9714882 Eh     change       -0.5895689E-05 Eh
 * total energy  :   -82.9714930 Eh     change       -0.4861038E-05 Eh
   *** GEOMETRY OPTIMIZATION CONVERGED AFTER 35 ITERATIONS ***

 final structure:
================
42
 xtb: 6.5.1 (579679a)
C            6.50656301709930        2.17359887011872       -0.95700561190875
O            5.43398047282128        1.76519533936871       -0.11663309220774
C            4.38605790208555        1.17713656841471       -0.73697799270118
O            4.38000968420192        1.02025006407158       -1.95091340745471
C            3.30829629333109        0.76000616676990        0.15408346752565
N            2.26906155005243        0.15112247497795       -0.51886181907835
C            1.24687818516628       -0.28674076311273        0.11286008459318
C            0.13916996935170       -1.00074076604337       -0.63087860326836
C            0.20093187454955       -2.50058702842720       -0.31402958758584
C            0.25907124533196       -0.73082563012723       -2.13161694804774
N           -1.14652976576676       -0.44765680874259       -0.13461826656460
C           -2.34722076563507       -0.84385333670587       -0.47317068951200
O           -2.48426772388207       -1.78710155239285       -1.36055825027374
C           -3.76412603818786       -2.29129072397506       -1.76976194959147
C           -3.46712214225668       -0.20301461728133        0.17261797525763
N           -4.74929333791540       -0.38837355756910        0.00452446361278
N           -5.38070622445464        0.44755097253633        0.85022733691738
C           -4.45819747690945        1.10619491707269        1.49849382722287
C           -4.64577626130290        2.13552677186356        2.53820414198692
O           -3.23065759070286        0.73846850615613        1.11139142234629
N            1.13255021442295       -0.19013070041563        1.48704023984227
C            2.08750851337126        0.40055711953283        2.28522733394471
O            1.91518294528509        0.45322239932617        3.49632697588158
C            3.30581344786763        0.94012257924543        1.56414086440165
O            4.19626718209975        1.48323913218195        2.23633916164767
H            6.94019448996638        1.31226332971976       -1.47445048106567
H            6.15921883803598        2.89512253269023       -1.70280191347180
H            7.25582308342673        2.63573962269565       -0.31517612032057
H           -0.52854781469076       -3.05572395826549       -0.89750152999747
H            0.00894953897854       -2.66559217244389        0.74408954266392
H            1.19744683405632       -2.86774597303031       -0.55702549830099
H           -0.47792458637731       -1.30401273927484       -2.68749829336798
H            0.11580345988745        0.32991731224414       -2.33060462713581
H            1.25909656159900       -1.01701459236291       -2.45674846176741
H           -1.10094925962418        0.30674829713826        0.53947855042512
H           -3.54948844932701       -3.07631233376368       -2.49226505542268
H           -4.29901633153733       -2.69421542867518       -0.90871052077853
H           -4.35052383726712       -1.49381535036125       -2.22833387750070
H           -4.18565193600181        3.07139551801377        2.21948760921089
H           -5.70754044750814        2.28870085569486        2.71561165754143
H           -4.15835872173501        1.82037882055865        3.46144900986423
H            0.32802640809600       -0.56771113742343        1.95454693243915

          :  Hamiltonian                  GFN1-xTB          :
         :: total energy             -82.971493033111 Eh    ::
         :: gradient norm              0.000385937060 Eh/a0 ::
         :: HOMO-LUMO gap              0.215171521422 eV    ::
         :: SCC energy               -83.747540621492 Eh    ::
         :: -> Gsolv                  -0.104053736402 Eh    ::
         :: repulsion energy           0.801421167698 Eh    ::

    * Orbital Energies and Occupations

         #    Occupation            Energy/Eh            Energy/eV
      -------------------------------------------------------------
         1        2.0000           -0.8978054             -24.4305
       ...           ...                  ...                  ...
        55        2.0000           -0.5074918             -13.8096
        56        2.0000           -0.5028835             -13.6842
        57        2.0000           -0.4980661             -13.5531
        58        2.0000           -0.4919533             -13.3867
        59        2.0000           -0.4834573             -13.1555
        60        2.0000           -0.4796593             -13.0522
        61        2.0000           -0.4699310             -12.7875
        62        2.0000           -0.4671773             -12.7125
        63        2.0000           -0.4521696             -12.3042
        64        2.0000           -0.4438246             -12.0771
        65        2.0000           -0.4299866             -11.7005
        66        2.0000           -0.3890544             -10.5867
        67        1.9693           -0.3768475             -10.2545 (HOMO)
        68        0.0307           -0.3689401             -10.0394 (LUMO)
        69                         -0.2842419              -7.7346
        70                         -0.2790986              -7.5947
        71                         -0.2543336              -6.9208
        72                         -0.2493729              -6.7858
        73                         -0.2057292              -5.5982
        74                         -0.1585172              -4.3135
        75                         -0.1520573              -4.1377
        76                         -0.1361929              -3.7060
        77                         -0.1339261              -3.6443
        78                         -0.1239258              -3.3722
       ...                                ...                  ...
       134                          0.7545552              20.5325
      -------------------------------------------------------------
                  HL-Gap            0.0079074 Eh            0.2152 eV

Wiberg/Mayer (AO) data.
largest (>0.10) Wiberg bond orders for each atom

     #   Z sym  total        # sym  WBO       # sym  WBO       # sym  WBO
 ---------------------------------------------------------------------------
     1   6 C    3.895 --    28 H    0.987    26 H    0.980    27 H    0.980
                             2 O    0.920
     2   8 O    2.168 --     3 C    1.060     1 C    0.920     4 O    0.113
     3   6 C    3.850 --     4 O    1.584     5 C    1.099     2 O    1.060
     4   8 O    1.855 --     3 C    1.584     2 O    0.113
     5   6 C    3.895 --    24 C    1.260     6 N    1.165     3 C    1.099
                            25 O    0.124
     6   7 N    3.036 --     7 C    1.628     5 C    1.165
     7   6 C    3.925 --     6 N    1.628    21 N    1.089     8 C    0.978
     8   6 C    3.893 --    10 C    0.989     9 C    0.978     7 C    0.978
                            11 N    0.876
     9   6 C    3.981 --    30 H    0.984    31 H    0.982    29 H    0.981
                             8 C    0.978
    10   6 C    3.983 --     8 C    0.989    32 H    0.984    33 H    0.984
                            34 H    0.979
    11   7 N    3.471 --    12 C    1.453     8 C    0.876    35 H    0.874
                            13 O    0.108
    12   6 C    3.879 --    11 N    1.453    13 O    1.188    15 C    1.090
    13   8 O    2.270 --    12 C    1.188    14 C    0.864    11 N    0.108
    14   6 C    3.831 --    36 H    0.980    38 H    0.974    37 H    0.974
                            13 O    0.864
    15   6 C    3.881 --    16 N    1.542    12 C    1.090    20 O    1.046
    16   7 N    3.014 --    15 C    1.542    17 N    1.248
    17   7 N    2.986 --    18 C    1.553    16 N    1.248
    18   6 C    3.847 --    17 N    1.553    20 O    1.086    19 C    1.039
    19   6 C    3.979 --    18 C    1.039    40 H    0.980    39 H    0.955
                            41 H    0.955
    20   8 O    2.328 --    18 C    1.086    15 C    1.046
    21   7 N    3.411 --    22 C    1.142     7 C    1.089    42 H    0.896
                            23 O    0.133
    22   6 C    3.871 --    23 O    1.599    21 N    1.142    24 C    0.962
    23   8 O    1.875 --    22 C    1.599    21 N    0.133
    24   6 C    3.937 --    25 O    1.537     5 C    1.260    22 C    0.962
    25   8 O    1.832 --    24 C    1.537     5 C    0.124
    26   1 H    1.013 --     1 C    0.980
    27   1 H    1.013 --     1 C    0.980
    28   1 H    1.015 --     1 C    0.987
    29   1 H    1.003 --     9 C    0.981
    30   1 H    0.999 --     9 C    0.984
    31   1 H    1.000 --     9 C    0.982
    32   1 H    1.004 --    10 C    0.984
    33   1 H    1.004 --    10 C    0.984
    34   1 H    1.012 --    10 C    0.979
    35   1 H    0.925 --    11 N    0.874
    36   1 H    1.003 --    14 C    0.980
    37   1 H    1.008 --    14 C    0.974
    38   1 H    1.009 --    14 C    0.974
    39   1 H    0.992 --    19 C    0.955
    40   1 H    0.995 --    19 C    0.980
    41   1 H    0.992 --    19 C    0.955
    42   1 H    0.940 --    21 N    0.896
 ---------------------------------------------------------------------------

           -------------------------------------------------
          | TOTAL ENERGY              -82.971493033111 Eh   |
          | GRADIENT NORM               0.000385937060 Eh/α |
          | HOMO-LUMO GAP               0.215171521422 eV   |
           -------------------------------------------------

 * finished run on 2023/06/21 at 17:18:01.541
