   * xtb version 6.5.1 (579679a) compiled by 'ehlert@majestix' on 2022-07-11
          program call               : /lustre/hpc/kemi/ree/PhD/git/ReactivityQM/dep/xtb-6.5.1/bin/xtb --gfn 1 /lustre/hpc/kemi/ree/PhD/git/ReactivityQM/calculations/R01/reac02prodN08/conf19/R01_reac02prodN08_conf19_gfn1.xyz --opt --vfukui --chrg 1 --uhf 0 --alpb DMSO

   ID    Z sym.   atoms
    1    6 C      1, 3, 5, 6, 8, 9, 12-15
    2    8 O      2, 4, 7, 10
    3    7 N      11, 16, 17
    4    1 H      18-33

      * Solvation model:               ALPB
        Solvent                        DMSO
        Solvent mass                       7.8130E+01 g/mol
          :  Hamiltonian                  GFN1-xTB          :
 * total energy  :   -57.7112972 Eh     change       -0.9320900E-10 Eh
 * total energy  :   -57.7286279 Eh     change       -0.1733075E-01 Eh
 * total energy  :   -57.7401707 Eh     change       -0.1154280E-01 Eh
 * total energy  :   -57.7435950 Eh     change       -0.3424326E-02 Eh
 * total energy  :   -57.7470921 Eh     change       -0.3497036E-02 Eh
 * total energy  :   -57.7487952 Eh     change       -0.1703139E-02 Eh
 * total energy  :   -57.7510585 Eh     change       -0.2263277E-02 Eh
 * total energy  :   -57.7530268 Eh     change       -0.1968313E-02 Eh
 * total energy  :   -57.7546867 Eh     change       -0.1659931E-02 Eh
 * total energy  :   -57.7563053 Eh     change       -0.1618532E-02 Eh
 * total energy  :   -57.8397780 Eh     change       -0.2123904E-04 Eh
 * total energy  :   -57.8398031 Eh     change       -0.2516724E-04 Eh
 * total energy  :   -57.8398192 Eh     change       -0.1609056E-04 Eh
 * total energy  :   -57.8398298 Eh     change       -0.1052629E-04 Eh
 * total energy  :   -57.8398490 Eh     change       -0.1923735E-04 Eh
 * total energy  :   -57.8398573 Eh     change       -0.8349762E-05 Eh
 * total energy  :   -57.8398681 Eh     change       -0.1076719E-04 Eh
 * total energy  :   -57.8398760 Eh     change       -0.7922740E-05 Eh
 * total energy  :   -57.8398797 Eh     change       -0.3700520E-05 Eh
   *** GEOMETRY OPTIMIZATION CONVERGED AFTER 94 ITERATIONS ***

 final structure:
================
33
 xtb: 6.5.1 (579679a)
C            3.71799570677070        0.90957482702594        2.37619541327401
O            2.55026199889109        0.93116894116880        1.53761346653628
C            2.49774911800581        0.04483447018995        0.56844118534548
O            3.35426743378611       -0.77074146868107        0.32698474422328
C            1.21067149480666        0.11777534150206       -0.22027626859273
C            1.14917278219000       -0.58628630654503       -1.56406081131801
O            2.36473043420815       -0.54975261231969       -2.24634238184108
C            0.09399825325963        0.09703580063030       -2.44432292386136
C            0.68970051726014       -2.04220318001729       -1.31678439689897
O            0.15474092973312        0.19291943431217       -3.64269966365621
N           -1.00155796423357        0.54201620125875       -1.74452642425279
C           -1.02976273447096        0.65045946316149       -0.33672645401337
C           -2.22880061751835        0.28068839937223        0.46541257318832
C           -2.04825151637178       -0.10018958991288        1.91444458420908
C           -3.44874763811722       -0.27636848075470       -0.22196582608852
N           -1.94088266665447        1.70818550848031        0.17309234055525
N            0.20299957953627        0.66819195418509        0.33258168839010
H            3.58689343085666        1.70914691137627        3.10151432687141
H            3.78999712161283       -0.05775982034975        2.87651654942866
H            4.61041057545994        1.07706814605663        1.76997312517148
H            3.06159445207941       -0.98439303264102       -1.72768279153599
H            1.42681668233017       -2.54584971529357       -0.69431111700333
H            0.61591546134904       -2.55447443001629       -2.27466283922019
H           -0.27663498676323       -2.05462822272475       -0.81926176542953
H           -1.72295040725370        1.00276229526918       -2.27285162808331
H           -1.93480043387261       -1.18153520717721        1.98555633975627
H           -1.16242151720491        0.37724582694032        2.32941744592689
H           -2.92480532359630        0.19901707998623        2.48747496994117
H           -3.36824878961668       -1.36290162689188       -0.25377040093270
H           -4.34362166255584       -0.00855614951675        0.33835170581881
H           -3.53777004723857        0.10045322763421       -1.23809209277584
H           -1.57804061470668        2.27902098899717        0.92415044350162
H           -2.53061905196383        2.18807402529590       -0.48938411663283

          :  Hamiltonian                  GFN1-xTB          :
         :: total energy             -57.839879739067 Eh    ::
         :: gradient norm              0.000525880528 Eh/a0 ::
         :: HOMO-LUMO gap              2.764357018731 eV    ::
         :: SCC energy               -58.406494210992 Eh    ::
         :: -> Gsolv                  -0.120830332629 Eh    ::
         :: repulsion energy           0.586097295821 Eh    ::

    * Orbital Energies and Occupations

         #    Occupation            Energy/Eh            Energy/eV
      -------------------------------------------------------------
         1        2.0000           -0.8962776             -24.3890
       ...           ...                  ...                  ...
        35        2.0000           -0.5524234             -15.0322
        36        2.0000           -0.5506998             -14.9853
        37        2.0000           -0.5446469             -14.8206
        38        2.0000           -0.5433300             -14.7848
        39        2.0000           -0.5396631             -14.6850
        40        2.0000           -0.5310876             -14.4516
        41        2.0000           -0.5250241             -14.2866
        42        2.0000           -0.5200740             -14.1519
        43        2.0000           -0.5151028             -14.0167
        44        2.0000           -0.5115532             -13.9201
        45        2.0000           -0.4869459             -13.2505
        46        2.0000           -0.4782518             -13.0139
        47        2.0000           -0.4668410             -12.7034 (HOMO)
        48                         -0.3652527              -9.9390 (LUMO)
        49                         -0.2908887              -7.9155
        50                         -0.2545599              -6.9269
        51                         -0.2041962              -5.5565
        52                         -0.1789682              -4.8700
        53                         -0.1674433              -4.5564
        54                         -0.1614329              -4.3928
        55                         -0.1483720              -4.0374
        56                         -0.1404551              -3.8220
        57                         -0.1357088              -3.6928
        58                         -0.1126322              -3.0649
       ...                                ...                  ...
       100                          0.7171818              19.5155
      -------------------------------------------------------------
                  HL-Gap            0.1015883 Eh            2.7644 eV

Wiberg/Mayer (AO) data.
largest (>0.10) Wiberg bond orders for each atom

     #   Z sym  total        # sym  WBO       # sym  WBO       # sym  WBO
 ---------------------------------------------------------------------------
     1   6 C    3.849 --    18 H    0.985    19 H    0.978    20 H    0.977
                             2 O    0.875
     2   8 O    2.236 --     3 C    1.165     1 C    0.875     4 O    0.147
     3   6 C    3.855 --     4 O    1.666     2 O    1.165     5 C    0.952
     4   8 O    1.964 --     3 C    1.666     2 O    0.147
     5   6 C    3.932 --    17 N    1.791     6 C    0.965     3 C    0.952
     6   6 C    3.935 --     7 O    0.990     5 C    0.965     9 C    0.933
                             8 C    0.926
     7   8 O    1.909 --     6 C    0.990    21 H    0.826
     8   6 C    3.880 --    10 O    1.698    11 N    1.154     6 C    0.926
     9   6 C    3.984 --    24 H    0.986    22 H    0.980    23 H    0.978
                             6 C    0.933
    10   8 O    1.963 --     8 C    1.698    11 N    0.145
    11   7 N    3.281 --     8 C    1.154    12 C    0.997    25 H    0.875
                            10 O    0.145
    12   6 C    3.870 --    17 N    1.039    11 N    0.997    13 C    0.894
                            16 N    0.836
    13   6 C    3.846 --    15 C    1.011    14 C    1.009    12 C    0.894
                            16 N    0.834
    14   6 C    3.978 --    13 C    1.009    27 H    0.979    28 H    0.975
                            26 H    0.972
    15   6 C    3.979 --    13 C    1.011    31 H    0.979    30 H    0.973
                            29 H    0.971
    16   7 N    3.505 --    33 H    0.870    32 H    0.866    12 C    0.836
                            13 C    0.834
    17   7 N    3.059 --     5 C    1.791    12 C    1.039
    18   1 H    1.007 --     1 C    0.985
    19   1 H    1.002 --     1 C    0.978
    20   1 H    1.003 --     1 C    0.977
    21   1 H    0.865 --     7 O    0.826
    22   1 H    1.000 --     9 C    0.980
    23   1 H    0.997 --     9 C    0.978
    24   1 H    0.999 --     9 C    0.986
    25   1 H    0.915 --    11 N    0.875
    26   1 H    0.994 --    14 C    0.972
    27   1 H    1.004 --    14 C    0.979
    28   1 H    0.993 --    14 C    0.975
    29   1 H    0.994 --    15 C    0.971
    30   1 H    0.990 --    15 C    0.973
    31   1 H    0.993 --    15 C    0.979
    32   1 H    0.903 --    16 N    0.866
    33   1 H    0.897 --    16 N    0.870
 ---------------------------------------------------------------------------

           -------------------------------------------------
          | TOTAL ENERGY              -57.839879739067 Eh   |
          | GRADIENT NORM               0.000525880528 Eh/α |
          | HOMO-LUMO GAP               2.764357018731 eV   |
           -------------------------------------------------

 * finished run on 2023/06/20 at 15:08:44.800
