   * xtb version 6.5.1 (579679a) compiled by 'ehlert@majestix' on 2022-07-11
          program call               : /lustre/hpc/kemi/ree/PhD/git/ReactivityQM/dep/xtb-6.5.1/bin/xtb --gfn 1 /lustre/hpc/kemi/ree/PhD/git/ReactivityQM/calculations/RaltegravirCLI/reac02prodN17/conf07/RaltegravirCLI_reac02prodN17_conf07_gfn1.xyz --opt --vfukui --chrg 1 --uhf 0 --alpb DMSO

   ID    Z sym.   atoms
    1    6 C      1, 3, 4, 6, 7, 10-14, 16, 17, 19-22, 25
    2    8 O      2, 5, 8
    3    7 N      9, 18, 23, 24
    4    9 F      15
    5    1 H      26-47

      * Solvation model:               ALPB
        Solvent                        DMSO
        Solvent mass                       7.8130E+01 g/mol
          :  Hamiltonian                  GFN1-xTB          :
 * total energy  :   -79.5124866 Eh     change       -0.5982770E-11 Eh
 * total energy  :   -79.5308370 Eh     change       -0.1835037E-01 Eh
 * total energy  :   -79.5369977 Eh     change       -0.6160706E-02 Eh
 * total energy  :   -79.5381774 Eh     change       -0.1179746E-02 Eh
 * total energy  :   -79.5389478 Eh     change       -0.7703573E-03 Eh
 * total energy  :   -79.5392280 Eh     change       -0.2802364E-03 Eh
 * total energy  :   -79.5394276 Eh     change       -0.1995495E-03 Eh
 * total energy  :   -79.5395977 Eh     change       -0.1701198E-03 Eh
 * total energy  :   -79.5397477 Eh     change       -0.1500399E-03 Eh
 * total energy  :   -79.5398650 Eh     change       -0.1173180E-03 Eh
 * total energy  :   -79.5403612 Eh     change       -0.3386681E-04 Eh
 * total energy  :   -79.5403727 Eh     change       -0.1150259E-04 Eh
 * total energy  :   -79.5403879 Eh     change       -0.1523200E-04 Eh
 * total energy  :   -79.5403982 Eh     change       -0.1030830E-04 Eh
 * total energy  :   -79.5404091 Eh     change       -0.1091050E-04 Eh
 * total energy  :   -79.5404179 Eh     change       -0.8807301E-05 Eh
 * total energy  :   -79.5404243 Eh     change       -0.6386835E-05 Eh
 * total energy  :   -79.5404294 Eh     change       -0.5132952E-05 Eh
 * total energy  :   -79.5404338 Eh     change       -0.4320947E-05 Eh
   *** GEOMETRY OPTIMIZATION CONVERGED AFTER 29 ITERATIONS ***

 final structure:
================
47
 xtb: 6.5.1 (579679a)
C           -2.86779968709567        4.13251504183993        0.98388284162559
O           -3.15534604914330        2.72475372903605        0.96367152374088
C           -2.29918494961161        1.81813888467885        0.53977936079764
C           -1.00009225967599        2.04821135669092        0.03135218287472
O           -0.51247166629870        3.27976072636734       -0.05091894993318
C           -0.27772840072505        0.93238302189088       -0.37532895116867
C            1.09689553777538        1.10048266889205       -0.92980849819528
O            1.60602671337896        2.22225400266246       -1.01672507742817
N            1.68968699507759       -0.02474725222444       -1.31752468862285
C            3.03482167294760       -0.03182618159967       -1.89083746404823
C            4.07249303546861       -0.23330349194549       -0.80780704345325
C            4.67352271056403       -1.47612612645057       -0.62902037998904
C            5.62425554461998       -1.66248290344721        0.36570407130030
C            5.94926345555713       -0.58654209460524        1.17144188328901
F            6.86641170113587       -0.75808536201313        2.13525969430361
C            5.36627341668303        0.65996313944363        1.02425008720753
C            4.42127460935012        0.82998805271738        0.02338378671973
N           -0.79503742800522       -0.30084995144034       -0.29890647917343
C           -1.99510413343866       -0.50956887858014        0.17759530665094
C           -2.49847519710514       -1.94378334006654        0.13409686071792
C           -1.32407777774122       -2.88605690770479       -0.17191921729886
C           -3.55093723064975       -2.05945977590718       -0.97979526299265
N           -3.09991808742885       -2.30747413462437        1.41205971619053
N           -2.75426465067160        0.54570544696577        0.61107947746214
C           -4.10425508781973        0.39768784543261        1.17377128167623
H           -3.76390033883424        4.60025482782180        1.39056941815773
H           -2.01038930335180        4.33711812484110        1.62610163593160
H           -2.67834959757099        4.49524992243120       -0.02703981347792
H            0.41683626341040        3.21273812905099       -0.44077230698479
H            1.20884890457065       -0.90074697010841       -1.18367341338644
H            3.07598550187467       -0.83668803742693       -2.62702102236901
H            3.18416951677099        0.93006719767855       -2.39031615318657
H            4.40178044609897       -2.30557825233651       -1.27071199329280
H            6.10065231246401       -2.62275649678202        0.51469014907973
H            5.64657074334518        1.47595337612616        1.67774059815731
H            3.94956772800552        1.79566192475167       -0.11371749249021
H           -0.54548268578133       -2.77064641060900        0.57947866040930
H           -0.90345930688671       -2.66839469165238       -1.15186319014753
H           -1.68014697215489       -3.91462035524608       -0.15767933551058
H           -4.41636920634756       -1.43497914004055       -0.76817822376946
H           -3.87756009461275       -3.09536238980413       -1.05689767441778
H           -3.11876175791163       -1.75353501560395       -1.93150281950202
H           -2.38278510313778       -2.33972596496034        2.12398401557341
H           -3.50147864231255       -3.23202030154846        1.33090232740106
H           -4.30448404568479       -0.65325777431132        1.36101002379114
H           -4.14635696786200        0.95369571394889        2.10906966246288
H           -4.82111718124151        0.81603706777368        0.46908088531485

          :  Hamiltonian                  GFN1-xTB          :
         :: total energy             -79.540433753008 Eh    ::
         :: gradient norm              0.000420944430 Eh/a0 ::
         :: HOMO-LUMO gap              1.825780003006 eV    ::
         :: SCC energy               -80.430636524437 Eh    ::
         :: -> Gsolv                  -0.095683029927 Eh    ::
         :: repulsion energy           0.920010242219 Eh    ::

    * Orbital Energies and Occupations

         #    Occupation            Energy/Eh            Energy/eV
      -------------------------------------------------------------
         1        2.0000           -0.8828594             -24.0238
       ...           ...                  ...                  ...
        55        2.0000           -0.5147414             -14.0068
        56        2.0000           -0.5136664             -13.9776
        57        2.0000           -0.5127768             -13.9534
        58        2.0000           -0.5111437             -13.9089
        59        2.0000           -0.5024208             -13.6716
        60        2.0000           -0.4932545             -13.4221
        61        2.0000           -0.4780818             -13.0093
        62        2.0000           -0.4704366             -12.8012
        63        2.0000           -0.4667153             -12.7000
        64        2.0000           -0.4602518             -12.5241
        65        2.0000           -0.4562415             -12.4150
        66        2.0000           -0.4429701             -12.0538
        67        2.0000           -0.4309726             -11.7274 (HOMO)
        68                         -0.3638764              -9.9016 (LUMO)
        69                         -0.3227847              -8.7834
        70                         -0.2781610              -7.5691
        71                         -0.2742708              -7.4633
        72                         -0.2686724              -7.3109
        73                         -0.1900682              -5.1720
        74                         -0.1584133              -4.3106
        75                         -0.1515871              -4.1249
        76                         -0.1500970              -4.0843
        77                         -0.1371721              -3.7326
        78                         -0.1351705              -3.6782
       ...                                ...                  ...
       144                          0.6622623              18.0211
      -------------------------------------------------------------
                  HL-Gap            0.0670962 Eh            1.8258 eV

Wiberg/Mayer (AO) data.
largest (>0.10) Wiberg bond orders for each atom

     #   Z sym  total        # sym  WBO       # sym  WBO       # sym  WBO
 ---------------------------------------------------------------------------
     1   6 C    3.835 --    26 H    0.982    27 H    0.977    28 H    0.977
                             2 O    0.865
     2   8 O    2.238 --     3 C    1.150     1 C    0.865
     3   6 C    3.895 --    24 N    1.259     4 C    1.226     2 O    1.150
     4   6 C    3.935 --     6 C    1.363     3 C    1.226     5 O    1.138
     5   8 O    2.083 --     4 C    1.138    29 H    0.715
     6   6 C    3.965 --     4 C    1.363    18 N    1.303     7 C    0.998
     7   6 C    3.915 --     8 O    1.509     9 N    1.332     6 C    0.998
     8   8 O    1.941 --     7 C    1.509     9 N    0.178    29 H    0.107
     9   7 N    3.409 --     7 C    1.332    10 C    0.926    30 H    0.891
                             8 O    0.178
    10   6 C    3.931 --    11 C    0.991    31 H    0.975    32 H    0.968
                             9 N    0.926
    11   6 C    3.985 --    12 C    1.423    17 C    1.415    10 C    0.991
    12   6 C    3.993 --    13 C    1.440    11 C    1.423    33 H    0.970
                            16 C    0.110
    13   6 C    3.991 --    12 C    1.440    14 C    1.403    34 H    0.969
                            17 C    0.111
    14   6 C    3.861 --    13 C    1.403    16 C    1.397    15 F    0.928
    15   9 F    1.058 --    14 C    0.928
    16   6 C    3.992 --    17 C    1.448    14 C    1.397    35 H    0.969
                            12 C    0.110
    17   6 C    3.992 --    16 C    1.448    11 C    1.415    36 H    0.969
                            13 C    0.111
    18   7 N    3.060 --    19 C    1.488     6 C    1.303
    19   6 C    3.899 --    18 N    1.488    24 N    1.192    20 C    0.978
    20   6 C    3.959 --    21 C    0.990    23 N    0.984    19 C    0.978
                            22 C    0.975
    21   6 C    3.992 --    20 C    0.990    37 H    0.984    39 H    0.983
                            38 H    0.983
    22   6 C    3.990 --    42 H    0.985    40 H    0.983    41 H    0.980
                            20 C    0.975
    23   7 N    2.997 --    20 C    0.984    43 H    0.936    44 H    0.932
    24   7 N    3.578 --     3 C    1.259    19 C    1.192    25 C    0.908
    25   6 C    3.888 --    46 H    0.972    47 H    0.970    45 H    0.959
                            24 N    0.908
    26   1 H    1.006 --     1 C    0.982
    27   1 H    1.007 --     1 C    0.977
    28   1 H    1.007 --     1 C    0.977
    29   1 H    0.833 --     5 O    0.715     8 O    0.107
    30   1 H    0.947 --     9 N    0.891
    31   1 H    1.000 --    10 C    0.975
    32   1 H    1.004 --    10 C    0.968
    33   1 H    0.998 --    12 C    0.970
    34   1 H    0.997 --    13 C    0.969
    35   1 H    0.997 --    16 C    0.969
    36   1 H    1.007 --    17 C    0.969
    37   1 H    1.005 --    21 C    0.984
    38   1 H    1.008 --    21 C    0.983
    39   1 H    1.000 --    21 C    0.983
    40   1 H    1.001 --    22 C    0.983
    41   1 H    0.997 --    22 C    0.980
    42   1 H    1.000 --    22 C    0.985
    43   1 H    0.950 --    23 N    0.936
    44   1 H    0.946 --    23 N    0.932
    45   1 H    1.024 --    25 C    0.959
    46   1 H    0.999 --    25 C    0.972
    47   1 H    0.998 --    25 C    0.970
 ---------------------------------------------------------------------------

           -------------------------------------------------
          | TOTAL ENERGY              -79.540433753008 Eh   |
          | GRADIENT NORM               0.000420944430 Eh/α |
          | HOMO-LUMO GAP               1.825780003006 eV   |
           -------------------------------------------------

 * finished run on 2023/06/20 at 15:41:02.163
