   * xtb version 6.5.1 (579679a) compiled by 'ehlert@majestix' on 2022-07-11
          program call               : /lustre/hpc/kemi/ree/PhD/git/ReactivityQM/dep/xtb-6.5.1/bin/xtb --gfn 1 /lustre/hpc/kemi/ree/PhD/git/ReactivityQM/calculations/R02oxygendeprot/reac01prodN10/conf15/R02oxygendeprot_reac01prodN10_conf15_gfn1.xyz --opt --vfukui --chrg 0 --uhf 0 --alpb DMSO

   ID    Z sym.   atoms
    1    6 C      1, 3, 5, 6, 8, 11-15, 17, 19, 22, 23
    2    8 O      2, 4, 7, 9, 18, 24
    3    7 N      10, 16, 20, 21, 25
    4    1 H      26-42

      * Solvation model:               ALPB
        Solvent                        DMSO
        Solvent mass                       7.8130E+01 g/mol
          :  Hamiltonian                  GFN1-xTB          :
 * total energy  :   -82.9616944 Eh     change       -0.1467981E-10 Eh
 * total energy  :   -82.9745059 Eh     change       -0.1281147E-01 Eh
 * total energy  :   -82.9803753 Eh     change       -0.5869403E-02 Eh
 * total energy  :   -82.9815667 Eh     change       -0.1191355E-02 Eh
 * total energy  :   -82.9821785 Eh     change       -0.6118353E-03 Eh
 * total energy  :   -82.9824732 Eh     change       -0.2947515E-03 Eh
 * total energy  :   -82.9826523 Eh     change       -0.1790397E-03 Eh
 * total energy  :   -82.9827695 Eh     change       -0.1172174E-03 Eh
 * total energy  :   -82.9828476 Eh     change       -0.7810141E-04 Eh
 * total energy  :   -82.9829001 Eh     change       -0.5254934E-04 Eh
 * total energy  :   -82.9829644 Eh     change       -0.1198684E-04 Eh
 * total energy  :   -82.9829726 Eh     change       -0.8198357E-05 Eh
 * total energy  :   -82.9829784 Eh     change       -0.5749391E-05 Eh
 * total energy  :   -82.9829840 Eh     change       -0.5593992E-05 Eh
 * total energy  :   -82.9829898 Eh     change       -0.5863795E-05 Eh
 * total energy  :   -82.9829950 Eh     change       -0.5131138E-05 Eh
 * total energy  :   -82.9830013 Eh     change       -0.6334879E-05 Eh
 * total energy  :   -82.9830075 Eh     change       -0.6209792E-05 Eh
 * total energy  :   -82.9830120 Eh     change       -0.4507510E-05 Eh
   *** GEOMETRY OPTIMIZATION CONVERGED AFTER 21 ITERATIONS ***

 final structure:
================
42
 xtb: 6.5.1 (579679a)
C           -4.79876673271153        2.29572996596460       -2.15407370704810
O           -4.29645527370990        1.22974100075424       -1.33835493320267
C           -2.99697827202902        1.21690276250715       -1.10443864089882
O           -2.21351907040943        2.02414374276849       -1.53807872338643
C           -2.57743789434572        0.04982241700685       -0.23191894375733
C           -3.53628485431402       -0.59212218498405        0.70953694149296
O           -4.56175508046313       -0.07809392517228        1.08013159135384
C           -3.09519060358317       -1.96987541138956        1.20651251880103
O           -3.86704404811355       -2.77296032348640        1.69160781735075
N           -1.77820261613491       -2.21703439935105        1.05632154440937
C           -0.79055914712134       -1.37047667627879        0.41773428404104
C           -0.00015104863258       -2.22693387834726       -0.57963696148186
C            0.12575734571388       -0.71145912653925        1.53042980697394
C           -0.69831234660635        0.28204990107916        2.35451565076545
C            0.69883526342641       -1.77826195572434        2.46362657885137
N            1.17033172568680        0.05128942694881        0.86718819639309
C            2.38043060549462       -0.40757859747259        0.47681487359936
O            2.79415557389334       -1.54521641034655        0.60489002065424
C            3.16976053201475        0.68158340891209       -0.15289318620623
N            2.77407066327234        1.90328076832456       -0.34919556687671
N            3.80325116758246        2.55637030598215       -0.95641641363571
C            4.76227309683436        1.69064560363140       -1.09250004147076
C            6.09662533129065        1.90564787127816       -1.69359236879420
O            4.42152043218401        0.48860114119316       -0.60547531043983
N           -1.35302876473242       -0.30044450891010       -0.32894877268375
H           -4.30882408471207        2.27971491658933       -3.12980825420352
H           -5.86772481113680        2.12574654944734       -2.26111002494635
H           -4.61004283239208        3.25494799076151       -1.66762059900742
H           -1.46079519626549       -3.12311802045447        1.36440430712841
H            0.67881423899597       -1.59226524404098       -1.14352423190907
H           -0.70031809330244       -2.69599308101277       -1.26809898020385
H            0.56677166218672       -2.99792709971455       -0.06513700386649
H           -1.03675952821313        1.11471767878061        1.73973781871097
H           -1.56529123016281       -0.21715667393425        2.78451032521042
H           -0.08334248474323        0.67225874325565        3.16360940385193
H           -0.09212120562089       -2.14293305188266        3.11621418648750
H            1.11990677497823       -2.62001091188751        1.92102438777760
H            1.48176806592768       -1.33569957368132        3.07687953510686
H            0.94859278388131        1.01317344939627        0.64526401691473
H            6.23721598727337        1.23136884347784       -2.53820125234695
H            6.87356795223814        1.69216165152171       -0.95963344347971
H            6.18525601658156        2.93565991503023       -2.02992644602935

          :  Hamiltonian                  GFN1-xTB          :
         :: total energy             -82.983012023642 Eh    ::
         :: gradient norm              0.000483636664 Eh/a0 ::
         :: HOMO-LUMO gap              1.749691730803 eV    ::
         :: SCC energy               -83.763561345309 Eh    ::
         :: -> Gsolv                  -0.052458313814 Eh    ::
         :: repulsion energy           0.808315246064 Eh    ::

    * Orbital Energies and Occupations

         #    Occupation            Energy/Eh            Energy/eV
      -------------------------------------------------------------
         1        2.0000           -0.8668657             -23.5886
       ...           ...                  ...                  ...
        55        2.0000           -0.5098151             -13.8728
        56        2.0000           -0.5087769             -13.8445
        57        2.0000           -0.5065943             -13.7851
        58        2.0000           -0.5009366             -13.6312
        59        2.0000           -0.4964788             -13.5099
        60        2.0000           -0.4860561             -13.2263
        61        2.0000           -0.4820234             -13.1165
        62        2.0000           -0.4752620             -12.9325
        63        2.0000           -0.4692694             -12.7695
        64        2.0000           -0.4613385             -12.5537
        65        2.0000           -0.4558065             -12.4031
        66        2.0000           -0.4489040             -12.2153
        67        2.0000           -0.4369750             -11.8907 (HOMO)
        68                         -0.3726750             -10.1410 (LUMO)
        69                         -0.3182006              -8.6587
        70                         -0.3149240              -8.5695
        71                         -0.2597667              -7.0686
        72                         -0.2509822              -6.8296
        73                         -0.2042116              -5.5569
        74                         -0.2003916              -5.4529
        75                         -0.1437965              -3.9129
        76                         -0.1430989              -3.8939
        77                         -0.1400614              -3.8113
        78                         -0.1330543              -3.6206
       ...                                ...                  ...
       134                          0.7652545              20.8236
      -------------------------------------------------------------
                  HL-Gap            0.0643000 Eh            1.7497 eV

Wiberg/Mayer (AO) data.
largest (>0.10) Wiberg bond orders for each atom

     #   Z sym  total        # sym  WBO       # sym  WBO       # sym  WBO
 ---------------------------------------------------------------------------
     1   6 C    3.860 --    27 H    0.985    26 H    0.979    28 H    0.978
                             2 O    0.886
     2   8 O    2.225 --     3 C    1.147     1 C    0.886     4 O    0.146
     3   6 C    3.852 --     4 O    1.681     2 O    1.147     5 C    0.947
     4   8 O    1.943 --     3 C    1.681     2 O    0.146
     5   6 C    3.952 --    25 N    1.770     6 C    1.000     3 C    0.947
     6   6 C    3.860 --     7 O    1.793     5 C    1.000     8 C    0.910
     7   8 O    2.002 --     6 C    1.793
     8   6 C    3.903 --     9 O    1.629    10 N    1.249     6 C    0.910
     9   8 O    1.921 --     8 C    1.629    10 N    0.185
    10   7 N    3.368 --     8 C    1.249    11 C    0.940    29 H    0.884
                             9 O    0.185
    11   6 C    3.911 --    25 N    1.019    12 C    0.964    10 N    0.940
                            13 C    0.877
    12   6 C    3.977 --    31 H    0.983    30 H    0.982    32 H    0.978
                            11 C    0.964
    13   6 C    3.931 --    14 C    1.000    15 C    0.998    16 N    0.946
                            11 C    0.877
    14   6 C    3.991 --    13 C    1.000    34 H    0.982    33 H    0.982
                            35 H    0.981
    15   6 C    3.986 --    13 C    0.998    36 H    0.983    38 H    0.979
                            37 H    0.975
    16   7 N    3.349 --    17 C    1.239    13 C    0.946    39 H    0.893
                            18 O    0.174
    17   6 C    3.915 --    18 O    1.596    16 N    1.239    19 C    0.990
    18   8 O    1.915 --    17 C    1.596    16 N    0.174
    19   6 C    3.876 --    20 N    1.609    24 O    1.065    17 C    0.990
    20   7 N    3.019 --    19 C    1.609    21 N    1.202
    21   7 N    2.981 --    22 C    1.602    20 N    1.202
    22   6 C    3.869 --    21 N    1.602    24 O    1.083    23 C    1.032
    23   6 C    3.986 --    22 C    1.032    42 H    0.982    40 H    0.963
                            41 H    0.963
    24   8 O    2.332 --    22 C    1.083    19 C    1.065
    25   7 N    3.045 --     5 C    1.770    11 C    1.019
    26   1 H    1.005 --     1 C    0.979
    27   1 H    1.009 --     1 C    0.985
    28   1 H    1.004 --     1 C    0.978
    29   1 H    0.926 --    10 N    0.884
    30   1 H    1.005 --    12 C    0.982
    31   1 H    1.000 --    12 C    0.983
    32   1 H    1.004 --    12 C    0.978
    33   1 H    1.001 --    14 C    0.982
    34   1 H    1.000 --    14 C    0.982
    35   1 H    0.998 --    14 C    0.981
    36   1 H    1.001 --    15 C    0.983
    37   1 H    1.012 --    15 C    0.975
    38   1 H    0.998 --    15 C    0.979
    39   1 H    0.955 --    16 N    0.893
    40   1 H    0.996 --    23 C    0.963
    41   1 H    0.996 --    23 C    0.963
    42   1 H    0.998 --    23 C    0.982
 ---------------------------------------------------------------------------

           -------------------------------------------------
          | TOTAL ENERGY              -82.983012023642 Eh   |
          | GRADIENT NORM               0.000483636664 Eh/α |
          | HOMO-LUMO GAP               1.749691730803 eV   |
           -------------------------------------------------

 * finished run on 2023/06/21 at 17:25:20.297
