   * xtb version 6.5.1 (579679a) compiled by 'ehlert@majestix' on 2022-07-11
          program call               : /lustre/hpc/kemi/ree/PhD/git/ReactivityQM/dep/xtb-6.5.1/bin/xtb --gfn 1 /lustre/hpc/kemi/ree/PhD/git/ReactivityQM/calculations/R02methylcation/reac01prodE06/conf02/R02methylcation_reac01prodE06_conf02_gfn1.xyz --opt --vfukui --chrg -2 --uhf 0 --alpb DMSO

   ID    Z sym.   atoms
    1    6 C      1, 3, 5, 6, 8, 11-15, 17, 19, 22, 23
    2    8 O      2, 4, 7, 9, 18, 24
    3    7 N      10, 16, 20, 21, 25
    4    1 H      26-42

      * Solvation model:               ALPB
        Solvent                        DMSO
        Solvent mass                       7.8130E+01 g/mol
          :  Hamiltonian                  GFN1-xTB          :
 * total energy  :   -83.6057438 Eh     change       -0.1803983E-08 Eh
 * total energy  :   -83.6167776 Eh     change       -0.1103385E-01 Eh
 * total energy  :   -83.6204444 Eh     change       -0.3666809E-02 Eh
 * total energy  :   -83.6211424 Eh     change       -0.6979525E-03 Eh
 * total energy  :   -83.6217080 Eh     change       -0.5656027E-03 Eh
 * total energy  :   -83.6220854 Eh     change       -0.3774276E-03 Eh
 * total energy  :   -83.6224279 Eh     change       -0.3424901E-03 Eh
 * total energy  :   -83.6227086 Eh     change       -0.2807470E-03 Eh
 * total energy  :   -83.6229468 Eh     change       -0.2381406E-03 Eh
 * total energy  :   -83.6231598 Eh     change       -0.2130327E-03 Eh
 * total energy  :   -83.6239223 Eh     change       -0.2122797E-04 Eh
 * total energy  :   -83.6239335 Eh     change       -0.1115673E-04 Eh
 * total energy  :   -83.6239537 Eh     change       -0.2018507E-04 Eh
 * total energy  :   -83.6239642 Eh     change       -0.1047770E-04 Eh
 * total energy  :   -83.6239744 Eh     change       -0.1020221E-04 Eh
 * total energy  :   -83.6239867 Eh     change       -0.1229304E-04 Eh
 * total energy  :   -83.6239970 Eh     change       -0.1037191E-04 Eh
 * total energy  :   -83.6240061 Eh     change       -0.9052468E-05 Eh
 * total energy  :   -83.6240103 Eh     change       -0.4187439E-05 Eh
   *** GEOMETRY OPTIMIZATION CONVERGED AFTER 33 ITERATIONS ***

 final structure:
================
42
 xtb: 6.5.1 (579679a)
C            3.48325341577867       -2.43856991927472       -3.24214802353397
O            3.45504269772031       -1.31536240613575       -2.38225647911359
C            2.27982350645192       -1.12250974418499       -1.70199202283973
O            1.35120097258223       -1.91585757018479       -1.87159353373277
C            2.25306099604004        0.02451296388236       -0.80408805515460
C            3.40247341051053        0.83736282475879       -0.56681716510857
O            4.49782993817295        0.78552245881590       -1.21013244445343
C            3.29020168533731        1.77609042909194        0.58548645654654
O            4.22854235033541        2.45473905468827        1.03264532886333
N            2.08438065751888        1.79579045092957        1.25103933662843
C            0.85219555719043        1.34358517960078        0.61834344563514
C            0.28778818074720        2.50014442387477       -0.25436924051853
C           -0.16865777346987        0.93733502428844        1.73761195051947
C           -0.65430399227981        2.13276779596834        2.56514268638302
C            0.49542024513586       -0.10798784632070        2.64797325692671
N           -1.29411572482980        0.33180676552824        1.02752345444047
C           -2.39224457717357       -0.18443487091575        1.64868697726019
O           -2.63394795597500       -0.05824860041630        2.86363710391588
C           -3.31285346944003       -0.86721917574535        0.75535812796690
N           -4.43724831997952       -1.48184801233104        1.08587497829859
N           -4.97079725508168       -1.96980662791584       -0.07478858686372
C           -4.16738428314141       -1.63936951791675       -1.03400907435173
C           -4.33118373626774       -1.93834510470419       -2.47727909753655
O           -3.09377538229695       -0.94495879306921       -0.59771640645670
N            1.04647781284456        0.17981626306752       -0.18949108873077
H            3.32755491885466       -3.36839030464073       -2.68298136040552
H            4.46477388544356       -2.46026356201043       -3.71630363444292
H            2.70769809208660       -2.36412359014720       -4.01294311088863
H            1.98734446990749        2.55538619904472        1.90676637551610
H            0.25254823182497        3.43005209962756        0.30953626023834
H           -0.71349595341856        2.25024810998251       -0.59987325876910
H            0.93420441185511        2.64106765668418       -1.12005112164248
H            0.19358043113562        2.70600884685187        2.93699903582786
H           -1.23454294112906        1.79138983387063        3.42183469911090
H           -1.28451888581039        2.78717633961391        1.96458673879746
H            1.34838365710387        0.33871153110863        3.15823217386210
H            0.84421008538258       -0.94754223004850        2.04405076482225
H           -0.20968740835697       -0.47091314301902        3.39440543826379
H           -1.05355248376006       -0.02973864787680        0.10590347127266
H           -5.31925091259191       -2.36041349749557       -2.64693049655819
H           -3.57731610182336       -2.65400324398562       -2.80970961160415
H           -4.21910945313141       -1.02806784293567       -3.06616624837559

          :  Hamiltonian                  GFN1-xTB          :
         :: total energy             -83.624010273248 Eh    ::
         :: gradient norm              0.000907504604 Eh/a0 ::
         :: HOMO-LUMO gap              0.082348319252 eV    ::
         :: SCC energy               -84.344690953970 Eh    ::
         :: -> Gsolv                  -0.268469822851 Eh    ::
         :: repulsion energy           0.747888795557 Eh    ::

    * Orbital Energies and Occupations

         #    Occupation            Energy/Eh            Energy/eV
      -------------------------------------------------------------
         1        2.0000           -0.8177707             -22.2527
       ...           ...                  ...                  ...
        56        2.0000           -0.4407389             -11.9931
        57        2.0000           -0.4373141             -11.8999
        58        2.0000           -0.4195930             -11.4177
        59        2.0000           -0.4158584             -11.3161
        60        2.0000           -0.4134602             -11.2508
        61        2.0000           -0.4075039             -11.0887
        62        2.0000           -0.4016987             -10.9308
        63        2.0000           -0.3964277             -10.7873
        64        2.0000           -0.3907091             -10.6317
        65        2.0000           -0.3785897             -10.3019
        66        2.0000           -0.3654243              -9.9437
        67        2.0000           -0.3345092              -9.1025
        68        1.6620           -0.2745492              -7.4709 (HOMO)
        69        0.3380           -0.2715230              -7.3885 (LUMO)
        70                         -0.2367700              -6.4428
        71                         -0.2213646              -6.0236
        72                         -0.1637879              -4.4569
        73                         -0.1515208              -4.1231
        74                         -0.1279358              -3.4813
        75                         -0.1109453              -3.0190
        76                         -0.1047884              -2.8514
        77                         -0.0959222              -2.6102
        78                         -0.0842747              -2.2932
        79                         -0.0806895              -2.1957
       ...                                ...                  ...
       134                          0.7378085              20.0768
      -------------------------------------------------------------
                  HL-Gap            0.0030262 Eh            0.0823 eV

Wiberg/Mayer (AO) data.
largest (>0.10) Wiberg bond orders for each atom

     #   Z sym  total        # sym  WBO       # sym  WBO       # sym  WBO
 ---------------------------------------------------------------------------
     1   6 C    3.912 --    27 H    0.987    26 H    0.980    28 H    0.980
                             2 O    0.939
     2   8 O    2.135 --     3 C    1.015     1 C    0.939     4 O    0.101
     3   6 C    3.815 --     4 O    1.549     5 C    1.114     2 O    1.015
     4   8 O    1.817 --     3 C    1.549     2 O    0.101
     5   6 C    3.909 --    25 N    1.273     6 C    1.232     3 C    1.114
     6   6 C    3.871 --     7 O    1.407     5 C    1.232     8 C    1.013
     7   8 O    1.652 --     6 C    1.407
     8   6 C    3.859 --     9 O    1.525    10 N    1.153     6 C    1.013
     9   8 O    1.789 --     8 C    1.525    10 N    0.127
    10   7 N    3.247 --     8 C    1.153    11 C    0.929    29 H    0.917
                             9 O    0.127
    11   6 C    3.941 --    25 N    1.027    12 C    0.961    13 C    0.944
                            10 N    0.929
    12   6 C    3.975 --    30 H    0.986    32 H    0.985    31 H    0.985
                            11 C    0.961
    13   6 C    3.934 --    14 C    0.999    15 C    0.991    11 C    0.944
                            16 N    0.937
    14   6 C    3.994 --    13 C    0.999    35 H    0.985    33 H    0.983
                            34 H    0.980
    15   6 C    3.992 --    13 C    0.991    36 H    0.985    38 H    0.985
                            37 H    0.982
    16   7 N    3.268 --    17 C    1.198    13 C    0.937    39 H    0.890
                            18 O    0.143
    17   6 C    3.824 --    18 O    1.467    16 N    1.198    19 C    1.079
    18   8 O    1.744 --    17 C    1.467    16 N    0.143
    19   6 C    3.735 --    20 N    1.477    17 C    1.079    24 O    0.996
    20   7 N    2.808 --    19 C    1.477    21 N    1.188
    21   7 N    2.979 --    22 C    1.625    20 N    1.188
    22   6 C    3.831 --    21 N    1.625    24 O    1.056    23 C    1.026
    23   6 C    3.993 --    22 C    1.026    40 H    0.985    42 H    0.972
                            41 H    0.967
    24   8 O    2.226 --    22 C    1.056    19 C    0.996
    25   7 N    2.663 --     5 C    1.273    11 C    1.027
    26   1 H    1.018 --     1 C    0.980
    27   1 H    1.018 --     1 C    0.987
    28   1 H    1.018 --     1 C    0.980
    29   1 H    0.970 --    10 N    0.917
    30   1 H    1.007 --    12 C    0.986
    31   1 H    1.013 --    12 C    0.985
    32   1 H    1.011 --    12 C    0.985
    33   1 H    1.005 --    14 C    0.983
    34   1 H    1.021 --    14 C    0.980
    35   1 H    1.008 --    14 C    0.985
    36   1 H    1.014 --    15 C    0.985
    37   1 H    1.023 --    15 C    0.982
    38   1 H    1.015 --    15 C    0.985
    39   1 H    0.988 --    16 N    0.890
    40   1 H    1.003 --    23 C    0.985
    41   1 H    0.999 --    23 C    0.967
    42   1 H    1.000 --    23 C    0.972
 ---------------------------------------------------------------------------

           -------------------------------------------------
          | TOTAL ENERGY              -83.624010273248 Eh   |
          | GRADIENT NORM               0.000907504604 Eh/α |
          | HOMO-LUMO GAP               0.082348319252 eV   |
           -------------------------------------------------

 * finished run on 2023/06/21 at 17:15:27.011
