   * xtb version 6.5.1 (579679a) compiled by 'ehlert@majestix' on 2022-07-11
          program call               : /lustre/hpc/kemi/ree/PhD/git/ReactivityQM/dep/xtb-6.5.1/bin/xtb --gfn 1 /lustre/hpc/kemi/ree/PhD/git/ReactivityQM/calculations/R02/reac01prodN06/conf13/R02_reac01prodN06_conf13_gfn1.xyz --opt --vfukui --chrg 1 --uhf 0 --alpb DMSO

   ID    Z sym.   atoms
    1    6 C      1, 3, 5, 7-10, 12, 14, 16, 17, 20, 22, 24
    2    8 O      2, 4, 13, 15, 23, 25
    3    7 N      6, 11, 18, 19, 21
    4    1 H      26-43

      * Solvation model:               ALPB
        Solvent                        DMSO
        Solvent mass                       7.8130E+01 g/mol
          :  Hamiltonian                  GFN1-xTB          :
 * total energy  :   -83.1558869 Eh     change       -0.4810374E-10 Eh
 * total energy  :   -83.1731576 Eh     change       -0.1727072E-01 Eh
 * total energy  :   -83.1798489 Eh     change       -0.6691251E-02 Eh
 * total energy  :   -83.1810952 Eh     change       -0.1246335E-02 Eh
 * total energy  :   -83.1819994 Eh     change       -0.9042291E-03 Eh
 * total energy  :   -83.1823927 Eh     change       -0.3932144E-03 Eh
 * total energy  :   -83.1828374 Eh     change       -0.4446870E-03 Eh
 * total energy  :   -83.1832685 Eh     change       -0.4311449E-03 Eh
 * total energy  :   -83.1836687 Eh     change       -0.4002428E-03 Eh
 * total energy  :   -83.1840106 Eh     change       -0.3418858E-03 Eh
 * total energy  :   -83.1867025 Eh     change       -0.1127108E-04 Eh
 * total energy  :   -83.1867153 Eh     change       -0.1278313E-04 Eh
 * total energy  :   -83.1867301 Eh     change       -0.1479675E-04 Eh
 * total energy  :   -83.1867427 Eh     change       -0.1261609E-04 Eh
 * total energy  :   -83.1867496 Eh     change       -0.6901325E-05 Eh
 * total energy  :   -83.1867572 Eh     change       -0.7651523E-05 Eh
 * total energy  :   -83.1867655 Eh     change       -0.8285967E-05 Eh
 * total energy  :   -83.1867715 Eh     change       -0.5956391E-05 Eh
 * total energy  :   -83.1867740 Eh     change       -0.2537087E-05 Eh
   *** GEOMETRY OPTIMIZATION CONVERGED AFTER 68 ITERATIONS ***

 final structure:
================
43
 xtb: 6.5.1 (579679a)
C           -2.12474153441648        2.90749011257448        2.19682827861718
O           -2.07967251147037        1.78609234453998        1.30979399246577
C           -3.24774575644390        1.38066203585714        0.80505124993431
O           -4.30085694743661        1.91313751478611        1.06012232958946
C           -3.07843906764325        0.20104893160250       -0.09176199766251
N           -1.78496899526662       -0.23134738755040       -0.27007812505380
C           -1.53735008636765       -1.25528009893498       -1.01126168195079
C           -0.10717690326651       -1.72301908983299       -1.18107489377036
C            0.07425631058914       -3.10189345237533       -0.53259847871006
C            0.29223179117852       -1.73661272226514       -2.66153728222582
N            0.71238861282947       -0.73711201992655       -0.46666026977923
C            2.03564049657967       -0.79766026137423       -0.38072235882356
O            2.78289214315854       -1.63930653630743       -0.84465062338252
C            2.62583639372941        0.34627029932563        0.39354731048384
O            1.94736924422586        1.34062430301601        0.94182545369416
C            2.86309986216401        2.13837823558265        1.52080696070484
C            2.46090277653147        3.36479665663737        2.22898058775329
N            4.06590108850892        1.66993597051196        1.34691236638089
N            3.90101814851568        0.54307553468117        0.63537692131540
C            5.04266512478224       -0.26044402471840        0.24888865345371
N           -2.52192392034471       -1.95371988851650       -1.64393421728536
C           -3.85346540637068       -1.61227421246218       -1.55271795849947
O           -4.73250539350227       -2.23316868558932       -2.12572886197516
C           -4.11478406673926       -0.44694864000918       -0.70683822167783
O           -5.39459439365385       -0.09154174306899       -0.58905802470074
H           -2.51917705274390        3.78330047465717        1.67576688761018
H           -2.75568105180461        2.67989795389192        3.05972193597279
H           -1.10022443348967        3.08740148098707        2.51419405302543
H            1.10547726244379       -3.43050731479022       -0.64553751049949
H           -0.58108467811036       -3.82253243315904       -1.01743593680571
H           -0.17227939762888       -3.04862194152066        0.52657847733014
H            0.18029304135584       -0.74053099277657       -3.08631301203807
H           -0.34082112570449       -2.43261278720538       -3.20774978154195
H            1.32826727178673       -2.05448655131485       -2.76090431780229
H            0.19681019137341        0.01739561564216       -0.01964292880441
H            1.70232587191164        3.12676333832149        2.97503440721455
H            3.32711658861586        3.81704794373107        2.70666008148149
H            2.02225541650430        4.06893940049577        1.52016434119683
H            5.94088847362897        0.23416313166542        0.60830770831796
H            5.05216475015744       -0.35329282875070       -0.83616956935879
H            4.93715176056060       -1.25077611462353        0.68978357552668
H           -2.30196177828445       -2.75446235487136       -2.21695434150493
H           -5.94749712043994       -0.69827219655654       -1.11501417823146

          :  Hamiltonian                  GFN1-xTB          :
         :: total energy             -83.186774011044 Eh    ::
         :: gradient norm              0.000283277777 Eh/a0 ::
         :: HOMO-LUMO gap              1.807315922060 eV    ::
         :: SCC energy               -83.996880006980 Eh    ::
         :: -> Gsolv                  -0.113913997836 Eh    ::
         :: repulsion energy           0.836410040232 Eh    ::

    * Orbital Energies and Occupations

         #    Occupation            Energy/Eh            Energy/eV
      -------------------------------------------------------------
         1        2.0000           -0.9380776             -25.5264
       ...           ...                  ...                  ...
        55        2.0000           -0.5311550             -14.4535
        56        2.0000           -0.5216605             -14.1951
        57        2.0000           -0.5196020             -14.1391
        58        2.0000           -0.5188595             -14.1189
        59        2.0000           -0.5179113             -14.0931
        60        2.0000           -0.5034967             -13.7008
        61        2.0000           -0.5010696             -13.6348
        62        2.0000           -0.4977519             -13.5445
        63        2.0000           -0.4928751             -13.4118
        64        2.0000           -0.4839776             -13.1697
        65        2.0000           -0.4731845             -12.8760
        66        2.0000           -0.4607075             -12.5365
        67        2.0000           -0.4415864             -12.0162 (HOMO)
        68                         -0.3751688             -10.2089 (LUMO)
        69                         -0.3327222              -9.0538
        70                         -0.3242620              -8.8236
        71                         -0.2969640              -8.0808
        72                         -0.2544249              -6.9233
        73                         -0.2479856              -6.7480
        74                         -0.1740348              -4.7357
        75                         -0.1691738              -4.6035
        76                         -0.1676374              -4.5616
        77                         -0.1499457              -4.0802
        78                         -0.1410594              -3.8384
       ...                                ...                  ...
       136                          0.7405367              20.1510
      -------------------------------------------------------------
                  HL-Gap            0.0664176 Eh            1.8073 eV

Wiberg/Mayer (AO) data.
largest (>0.10) Wiberg bond orders for each atom

     #   Z sym  total        # sym  WBO       # sym  WBO       # sym  WBO
 ---------------------------------------------------------------------------
     1   6 C    3.870 --    28 H    0.986    26 H    0.979    27 H    0.979
                             2 O    0.896
     2   8 O    2.196 --     3 C    1.107     1 C    0.896     4 O    0.135
     3   6 C    3.853 --     4 O    1.667     2 O    1.107     5 C    0.999
     4   8 O    1.932 --     3 C    1.667     2 O    0.135
     5   6 C    3.960 --    24 C    1.505     6 N    1.166     3 C    0.999
     6   7 N    3.057 --     7 C    1.592     5 C    1.166
     7   6 C    3.935 --     6 N    1.592    21 N    1.173     8 C    0.983
     8   6 C    3.922 --     7 C    0.983    10 C    0.979     9 C    0.976
                            11 N    0.917
     9   6 C    3.983 --    31 H    0.984    30 H    0.982    29 H    0.978
                             8 C    0.976
    10   6 C    3.983 --    32 H    0.984    33 H    0.981     8 C    0.979
                            34 H    0.978
    11   7 N    3.414 --    12 C    1.328     8 C    0.917    35 H    0.860
                            13 O    0.204
    12   6 C    3.931 --    13 O    1.573    11 N    1.328    14 C    0.956
    13   8 O    1.934 --    12 C    1.573    11 N    0.204
    14   6 C    3.841 --    19 N    1.454    15 O    1.129    12 C    0.956
    15   8 O    2.372 --    14 C    1.129    16 C    1.069
    16   6 C    3.840 --    18 N    1.572    15 O    1.069    17 C    1.043
    17   6 C    3.970 --    16 C    1.043    37 H    0.976    36 H    0.953
                            38 H    0.946
    18   7 N    2.967 --    16 C    1.572    19 N    1.160
    19   7 N    3.660 --    14 C    1.454    18 N    1.160    20 C    0.908
    20   6 C    3.879 --    39 H    0.980    40 H    0.963    41 H    0.962
                            19 N    0.908
    21   7 N    3.466 --     7 C    1.173    22 C    1.128    42 H    0.879
                            23 O    0.133
    22   6 C    3.908 --    23 O    1.592    21 N    1.128    24 C    1.057
    23   8 O    1.916 --    22 C    1.592    21 N    0.133
    24   6 C    3.921 --     5 C    1.505    25 O    1.120    22 C    1.057
    25   8 O    2.097 --    24 C    1.120    43 H    0.804
    26   1 H    1.006 --     1 C    0.979
    27   1 H    1.006 --     1 C    0.979
    28   1 H    1.013 --     1 C    0.986
    29   1 H    1.003 --     9 C    0.978
    30   1 H    0.997 --     9 C    0.982
    31   1 H    0.999 --     9 C    0.984
    32   1 H    0.999 --    10 C    0.984
    33   1 H    0.997 --    10 C    0.981
    34   1 H    1.003 --    10 C    0.978
    35   1 H    0.948 --    11 N    0.860
    36   1 H    0.991 --    17 C    0.953
    37   1 H    0.990 --    17 C    0.976
    38   1 H    0.989 --    17 C    0.946
    39   1 H    0.994 --    20 C    0.980
    40   1 H    0.999 --    20 C    0.963
    41   1 H    0.997 --    20 C    0.962
    42   1 H    0.923 --    21 N    0.879
    43   1 H    0.841 --    25 O    0.804
 ---------------------------------------------------------------------------

           -------------------------------------------------
          | TOTAL ENERGY              -83.186774011044 Eh   |
          | GRADIENT NORM               0.000283277777 Eh/α |
          | HOMO-LUMO GAP               1.807315922060 eV   |
           -------------------------------------------------

 * finished run on 2023/06/20 at 15:25:16.779
