   * xtb version 6.5.1 (579679a) compiled by 'ehlert@majestix' on 2022-07-11
          program call               : /lustre/hpc/kemi/ree/PhD/git/ReactivityQM/dep/xtb-6.5.1/bin/xtb --gfn 1 /lustre/hpc/kemi/ree/PhD/git/ReactivityQM/calculations/R01/reac02prodN04/conf11/R01_reac02prodN04_conf11_gfn1.xyz --opt --vfukui --chrg 1 --uhf 0 --alpb DMSO

   ID    Z sym.   atoms
    1    6 C      1, 3, 5, 6, 8, 11-14, 17
    2    8 O      2, 4, 7, 9
    3    7 N      10, 15, 16
    4    1 H      18-33

      * Solvation model:               ALPB
        Solvent                        DMSO
        Solvent mass                       7.8130E+01 g/mol
          :  Hamiltonian                  GFN1-xTB          :
 * total energy  :   -57.8332344 Eh     change       -0.1580247E-10 Eh
 * total energy  :   -57.8496683 Eh     change       -0.1643384E-01 Eh
 * total energy  :   -57.8552183 Eh     change       -0.5550007E-02 Eh
 * total energy  :   -57.8566316 Eh     change       -0.1413320E-02 Eh
 * total energy  :   -57.8575677 Eh     change       -0.9361318E-03 Eh
 * total energy  :   -57.8579597 Eh     change       -0.3919397E-03 Eh
 * total energy  :   -57.8581906 Eh     change       -0.2309368E-03 Eh
 * total energy  :   -57.8583474 Eh     change       -0.1568019E-03 Eh
 * total energy  :   -57.8585016 Eh     change       -0.1542124E-03 Eh
 * total energy  :   -57.8586848 Eh     change       -0.1832193E-03 Eh
 * total energy  :   -57.8598311 Eh     change       -0.1896784E-04 Eh
 * total energy  :   -57.8598429 Eh     change       -0.1180509E-04 Eh
 * total energy  :   -57.8598516 Eh     change       -0.8723885E-05 Eh
 * total energy  :   -57.8598742 Eh     change       -0.2258365E-04 Eh
 * total energy  :   -57.8598883 Eh     change       -0.1407879E-04 Eh
 * total energy  :   -57.8598965 Eh     change       -0.8222022E-05 Eh
 * total energy  :   -57.8599024 Eh     change       -0.5896143E-05 Eh
 * total energy  :   -57.8599124 Eh     change       -0.9989588E-05 Eh
 * total energy  :   -57.8599150 Eh     change       -0.2554661E-05 Eh
   *** GEOMETRY OPTIMIZATION CONVERGED AFTER 37 ITERATIONS ***

 final structure:
================
33
 xtb: 6.5.1 (579679a)
C            4.95028785515395        0.60957101057870       -0.43251425128910
O            3.68792983048909        0.45383394615425        0.23818040916442
C            2.67894680379022        0.02059676427390       -0.48405860434036
O            2.73846068843230       -0.25163652372722       -1.65724968947883
C            1.42289590186807       -0.14641723381563        0.33969365085075
C            1.45890207906288       -0.62720967633961        1.61437954008067
O            2.58569323801023       -0.88069245286326        2.26502798640794
C            0.21727277770169       -0.93231062521311        2.32425646759775
O            0.16438859599194       -1.32434549404772        3.46613245777414
N           -0.91513205392376       -0.76198551221329        1.54220967152533
C           -0.95339331555552       -0.28876695785668        0.28533504012430
C           -2.32647290938780       -0.19077987756744       -0.36639383607603
C           -2.87952353433965        1.22315482703197       -0.12314110112222
C           -3.29805146059313       -1.22478235432199        0.22945063804636
N           -2.19255272573990       -0.43668787654417       -1.79349831298394
N            0.18743551627522        0.07140660622929       -0.28229860204236
C            0.21847254888706        0.77554803188358       -1.57573463443990
H            5.24963275074287       -0.33897448209526       -0.88297423462960
H            5.66352052023308        0.91838560869256        0.32865613767190
H            4.86041203739008        1.37210020105621       -1.20842328309765
H            2.39554686709788       -1.23300176788135        3.15385039441260
H           -1.77938497092534       -1.01780186418230        2.00150032575528
H           -2.95338545832991        1.41325184288311        0.94618824453580
H           -3.87203304209985        1.29061908618689       -0.56502101403658
H           -2.24228544488994        1.98141625646143       -0.57329016174043
H           -4.18847334070291       -1.24767774759032       -0.39645387883662
H           -2.85048402776653       -2.21663113330713        0.23279727434200
H           -3.60468659695752       -0.95676656614856        1.23940775237390
H           -3.04852555771678       -0.15952438136157       -2.25422185898648
H           -2.05971526648520       -1.42667241829283       -1.95309120407711
H           -0.71913278235202        1.29427874125321       -1.72739452580745
H            0.37164635863841        0.05180354326084       -2.37370251729250
H            1.03178811800087        1.49655947942361       -1.55760328038477

          :  Hamiltonian                  GFN1-xTB          :
         :: total energy             -57.859914971372 Eh    ::
         :: gradient norm              0.000490482611 Eh/a0 ::
         :: HOMO-LUMO gap              2.165239303172 eV    ::
         :: SCC energy               -58.442890506339 Eh    ::
         :: -> Gsolv                  -0.099811707781 Eh    ::
         :: repulsion energy           0.602477894928 Eh    ::

    * Orbital Energies and Occupations

         #    Occupation            Energy/Eh            Energy/eV
      -------------------------------------------------------------
         1        2.0000           -0.8899565             -24.2169
       ...           ...                  ...                  ...
        35        2.0000           -0.5575392             -15.1714
        36        2.0000           -0.5433974             -14.7866
        37        2.0000           -0.5380078             -14.6399
        38        2.0000           -0.5351324             -14.5617
        39        2.0000           -0.5320150             -14.4769
        40        2.0000           -0.5295807             -14.4106
        41        2.0000           -0.5276575             -14.3583
        42        2.0000           -0.5222666             -14.2116
        43        2.0000           -0.5193830             -14.1331
        44        2.0000           -0.5156208             -14.0308
        45        2.0000           -0.4982396             -13.5578
        46        2.0000           -0.4788680             -13.0307
        47        2.0000           -0.4413101             -12.0087 (HOMO)
        48                         -0.3617391              -9.8434 (LUMO)
        49                         -0.3527639              -9.5992
        50                         -0.2847075              -7.7473
        51                         -0.2184683              -5.9448
        52                         -0.1607670              -4.3747
        53                         -0.1537132              -4.1828
        54                         -0.1514004              -4.1198
        55                         -0.1446800              -3.9369
        56                         -0.1323101              -3.6003
        57                         -0.1243590              -3.3840
        58                         -0.1087185              -2.9584
       ...                                ...                  ...
       100                          0.7093560              19.3026
      -------------------------------------------------------------
                  HL-Gap            0.0795711 Eh            2.1652 eV

Wiberg/Mayer (AO) data.
largest (>0.10) Wiberg bond orders for each atom

     #   Z sym  total        # sym  WBO       # sym  WBO       # sym  WBO
 ---------------------------------------------------------------------------
     1   6 C    3.848 --    19 H    0.985    18 H    0.978    20 H    0.978
                             2 O    0.874
     2   8 O    2.236 --     3 C    1.165     1 C    0.874     4 O    0.146
     3   6 C    3.865 --     4 O    1.664     2 O    1.165     5 C    0.964
     4   8 O    1.954 --     3 C    1.664     2 O    0.146
     5   6 C    3.923 --     6 C    1.538    16 N    1.079     3 C    0.964
     6   6 C    3.927 --     5 C    1.538     7 O    1.141     8 C    1.038
     7   8 O    2.111 --     6 C    1.141    21 H    0.791
     8   6 C    3.903 --     9 O    1.653    10 N    1.084     6 C    1.038
     9   8 O    1.962 --     8 C    1.653    10 N    0.119
    10   7 N    3.490 --    11 C    1.268     8 C    1.084    22 H    0.862
                             9 O    0.119
    11   6 C    3.883 --    16 N    1.405    10 N    1.268    12 C    0.973
    12   6 C    3.954 --    15 N    0.994    14 C    0.983    11 C    0.973
                            13 C    0.967
    13   6 C    3.985 --    23 H    0.984    25 H    0.978    24 H    0.977
                            12 C    0.967
    14   6 C    3.988 --    12 C    0.983    27 H    0.983    26 H    0.977
                            28 H    0.976
    15   7 N    2.974 --    12 C    0.994    30 H    0.933    29 H    0.928
    16   7 N    3.584 --    11 C    1.405     5 C    1.079    17 C    0.901
    17   6 C    3.886 --    33 H    0.977    31 H    0.973    32 H    0.966
                            16 N    0.901
    18   1 H    1.003 --     1 C    0.978
    19   1 H    1.007 --     1 C    0.985
    20   1 H    1.003 --     1 C    0.978
    21   1 H    0.823 --     7 O    0.791
    22   1 H    0.916 --    10 N    0.862
    23   1 H    0.998 --    13 C    0.984
    24   1 H    0.994 --    13 C    0.977
    25   1 H    0.999 --    13 C    0.978
    26   1 H    0.997 --    14 C    0.977
    27   1 H    0.996 --    14 C    0.983
    28   1 H    0.996 --    14 C    0.976
    29   1 H    0.942 --    15 N    0.928
    30   1 H    0.946 --    15 N    0.933
    31   1 H    1.020 --    17 C    0.973
    32   1 H    1.013 --    17 C    0.966
    33   1 H    0.999 --    17 C    0.977
 ---------------------------------------------------------------------------

           -------------------------------------------------
          | TOTAL ENERGY              -57.859914971372 Eh   |
          | GRADIENT NORM               0.000490482611 Eh/α |
          | HOMO-LUMO GAP               2.165239303172 eV   |
           -------------------------------------------------

 * finished run on 2023/06/20 at 15:05:31.327
