                         Program Version 5.0.1 -  RELEASE  -
|  1> # ORCA input file
|  2> ! SP r2SCAN-3c CPCM
|  3>
|  4> %maxcore 1875.0
|  5> %pal nprocs 4 end
|  6> %cpcm smd true SMDsolvent "DMSO" end
|  7>
|  8> *xyz 1 1
|  9> C       6.956327    0.169838   -0.231483
| 10> C       5.656865    0.543032   -0.830056
| 11> N       5.439411    1.339976   -1.830519
| 12> N       4.092047    1.375842   -2.019471
| 13> C       3.567798    0.598811   -1.123834
| 14> C       2.137199    0.301791   -0.897640
| 15> O       1.241993    0.776451   -1.576525
| 16> N       1.928377   -0.511896    0.166348
| 17> C       0.592335   -1.021334    0.460314
| 18> C       0.640289   -1.723646    1.821573
| 19> C       0.138707   -1.981962   -0.642646
| 20> C      -0.353590    0.152793    0.562787
| 21> N      -1.579318    0.032710    0.175502
| 22> C      -2.426899    1.107027    0.315778
| 23> C      -3.785214    0.982173   -0.131352
| 24> O      -4.630376    1.820079   -0.196608
| 25> O      -4.153968   -0.368738   -0.630401
| 26> C      -5.403800   -0.359317   -1.386149
| 27> C      -4.068569   -1.465021    0.331949
| 28> C      -1.998240    2.317512    0.837839
| 29> O      -2.743541    3.392980    0.973251
| 30> C      -0.601012    2.448565    1.311084
| 31> O      -0.118990    3.442935    1.806032
| 32> N       0.123175    1.290651    1.137011
| 33> O       4.513184    0.040896   -0.336891
| 34> H       7.763643    0.666721   -0.764735
| 35> H       7.090824   -0.910377   -0.283761
| 36> H       6.976683    0.459386    0.819041
| 37> H       2.712124   -0.944914    0.625831
| 38> H       1.317467   -2.574244    1.772801
| 39> H      -0.354730   -2.077262    2.085401
| 40> H       0.987245   -1.033457    2.588415
| 41> H       0.063458   -1.453180   -1.592045
| 42> H       0.854697   -2.795870   -0.735967
| 43> H      -0.837256   -2.389679   -0.388052
| 44> H      -5.485055   -1.336621   -1.853515
| 45> H      -5.314067    0.427346   -2.131517
| 46> H      -6.235536   -0.168110   -0.709138
| 47> H      -4.833447   -1.335859    1.096536
| 48> H      -4.221683   -2.380367   -0.234007
| 49> H      -3.066725   -1.436936    0.752054
| 50> H      -3.665795    3.279869    0.672607
| 51> H       1.083962    1.301403    1.454090
| 52> **                         ****END OF INPUT****

CARTESIAN COORDINATES (ANGSTROEM)
---------------------------------
  C      6.956327    0.169838   -0.231483
  C      5.656865    0.543032   -0.830056
  N      5.439411    1.339976   -1.830519
  N      4.092047    1.375842   -2.019471
  C      3.567798    0.598811   -1.123834
  C      2.137199    0.301791   -0.897640
  O      1.241993    0.776451   -1.576525
  N      1.928377   -0.511896    0.166348
  C      0.592335   -1.021334    0.460314
  C      0.640289   -1.723646    1.821573
  C      0.138707   -1.981962   -0.642646
  C     -0.353590    0.152793    0.562787
  N     -1.579318    0.032710    0.175502
  C     -2.426899    1.107027    0.315778
  C     -3.785214    0.982173   -0.131352
  O     -4.630376    1.820079   -0.196608
  O     -4.153968   -0.368738   -0.630401
  C     -5.403800   -0.359317   -1.386149
  C     -4.068569   -1.465021    0.331949
  C     -1.998240    2.317512    0.837839
  O     -2.743541    3.392980    0.973251
  C     -0.601012    2.448565    1.311084
  O     -0.118990    3.442935    1.806032
  N      0.123175    1.290651    1.137011
  O      4.513184    0.040896   -0.336891
  H      7.763643    0.666721   -0.764735
  H      7.090824   -0.910377   -0.283761
  H      6.976683    0.459386    0.819041
  H      2.712124   -0.944914    0.625831
  H      1.317467   -2.574244    1.772801
  H     -0.354730   -2.077262    2.085401
  H      0.987245   -1.033457    2.588415
  H      0.063458   -1.453180   -1.592045
  H      0.854697   -2.795870   -0.735967
  H     -0.837256   -2.389679   -0.388052
  H     -5.485055   -1.336621   -1.853515
  H     -5.314067    0.427346   -2.131517
  H     -6.235536   -0.168110   -0.709138
  H     -4.833447   -1.335859    1.096536
  H     -4.221683   -2.380367   -0.234007
  H     -3.066725   -1.436936    0.752054
  H     -3.665795    3.279869    0.672607
  H      1.083962    1.301403    1.454090

 Total Charge           Charge          ....    1
 Multiplicity           Mult            ....    1
 Number of Electrons    NEL             ....  184
 Basis Dimension        Dim             ....  620

ORBITAL ENERGIES
----------------

  NO   OCC          E(Eh)            E(eV)
   0   2.0000     -19.121093      -520.3114
   1   2.0000     -19.070232      -518.9274
   2   2.0000     -19.035076      -517.9708
   3   2.0000     -19.022002      -517.6150
   4   2.0000     -18.951253      -515.6898
   5   2.0000     -18.946644      -515.5644
   6   2.0000     -14.240110      -387.4931
   7   2.0000     -14.211012      -386.7013
   8   2.0000     -14.210150      -386.6778
   9   2.0000     -14.201252      -386.4357
  10   2.0000     -14.183861      -385.9625
  11   2.0000     -10.230142      -278.3763
  12   2.0000     -10.171452      -276.7793
  13   2.0000     -10.166328      -276.6399
  14   2.0000     -10.162147      -276.5261
  15   2.0000     -10.151521      -276.2369
  16   2.0000     -10.147955      -276.1399
  17   2.0000     -10.143837      -276.0278
  18   2.0000     -10.126316      -275.5511
  19   2.0000     -10.115858      -275.2665
  20   2.0000     -10.113043      -275.1899
  21   2.0000     -10.112518      -275.1756
  22   2.0000     -10.047640      -273.4102
  23   2.0000     -10.034289      -273.0469
  24   2.0000     -10.024700      -272.7860
  25   2.0000      -1.160105       -31.5681
  26   2.0000      -1.158963       -31.5370
  27   2.0000      -1.095886       -29.8206
  28   2.0000      -1.079180       -29.3660
  29   2.0000      -1.043723       -28.4011
  30   2.0000      -1.035360       -28.1736
  31   2.0000      -0.986489       -26.8437
  32   2.0000      -0.980507       -26.6810
  33   2.0000      -0.924204       -25.1489
  34   2.0000      -0.901666       -24.5356
  35   2.0000      -0.837118       -22.7791
  36   2.0000      -0.808485       -22.0000
  37   2.0000      -0.766379       -20.8542
  38   2.0000      -0.752945       -20.4887
  39   2.0000      -0.738012       -20.0823
  40   2.0000      -0.717075       -19.5126
  41   2.0000      -0.691291       -18.8110
  42   2.0000      -0.674114       -18.3436
  43   2.0000      -0.670914       -18.2565
  44   2.0000      -0.663467       -18.0539
  45   2.0000      -0.608120       -16.5478
  46   2.0000      -0.607195       -16.5226
  47   2.0000      -0.593298       -16.1445
  48   2.0000      -0.588693       -16.0191
  49   2.0000      -0.573584       -15.6080
  50   2.0000      -0.560739       -15.2585
  51   2.0000      -0.546111       -14.8604
  52   2.0000      -0.537521       -14.6267
  53   2.0000      -0.525501       -14.2996
  54   2.0000      -0.515162       -14.0183
  55   2.0000      -0.500812       -13.6278
  56   2.0000      -0.495908       -13.4943
  57   2.0000      -0.481470       -13.1015
  58   2.0000      -0.473393       -12.8817
  59   2.0000      -0.463560       -12.6141
  60   2.0000      -0.454865       -12.3775
  61   2.0000      -0.436885       -11.8882
  62   2.0000      -0.433789       -11.8040
  63   2.0000      -0.425305       -11.5731
  64   2.0000      -0.423325       -11.5193
  65   2.0000      -0.417976       -11.3737
  66   2.0000      -0.416311       -11.3284
  67   2.0000      -0.410192       -11.1619
  68   2.0000      -0.407254       -11.0819
  69   2.0000      -0.401571       -10.9273
  70   2.0000      -0.399647       -10.8750
  71   2.0000      -0.392271       -10.6742
  72   2.0000      -0.388032       -10.5589
  73   2.0000      -0.383937       -10.4475
  74   2.0000      -0.381441       -10.3795
  75   2.0000      -0.366888        -9.9835
  76   2.0000      -0.360258        -9.8031
  77   2.0000      -0.359084        -9.7712
  78   2.0000      -0.350861        -9.5474
  79   2.0000      -0.348952        -9.4955
  80   2.0000      -0.344997        -9.3879
  81   2.0000      -0.331609        -9.0235
  82   2.0000      -0.326441        -8.8829
  83   2.0000      -0.318860        -8.6766
  84   2.0000      -0.304469        -8.2850
  85   2.0000      -0.278453        -7.5771
  86   2.0000      -0.272047        -7.4028
  87   2.0000      -0.267673        -7.2837
  88   2.0000      -0.264136        -7.1875
  89   2.0000      -0.258920        -7.0456
  90   2.0000      -0.254977        -6.9383
  91   2.0000      -0.234084        -6.3698
  92   0.0000      -0.141798        -3.8585
  93   0.0000      -0.094935        -2.5833
  94   0.0000      -0.057705        -1.5702
  95   0.0000      -0.030870        -0.8400
  96   0.0000      -0.024305        -0.6614

MULLIKEN ATOMIC CHARGES
-----------------------
   0 C :   -0.631855
   1 C :    0.401084
   2 N :   -0.280982
   3 N :   -0.165632
   4 C :    0.433639
   5 C :   -0.110075
   6 O :   -0.418281
   7 N :   -0.195513
   8 C :    0.060324
   9 C :   -0.531216
  10 C :   -0.588391
  11 C :    0.222116
  12 N :   -0.141674
  13 C :    0.135951
  14 C :    0.286689
  15 O :   -0.379392
  16 O :   -0.104518
  17 C :   -0.245926
  18 C :   -0.265447
  19 C :    0.118055
  20 O :   -0.340579
  21 C :    0.079179
  22 O :   -0.375191
  23 N :   -0.032742
  24 O :   -0.055464
  25 H :    0.206158
  26 H :    0.202251
  27 H :    0.202254
  28 H :    0.325082
  29 H :    0.194372
  30 H :    0.198697
  31 H :    0.193488
  32 H :    0.198450
  33 H :    0.190681
  34 H :    0.185931
  35 H :    0.214149
  36 H :    0.213884
  37 H :    0.218031
  38 H :    0.213859
  39 H :    0.215223
  40 H :    0.231651
  41 H :    0.381651
  42 H :    0.340033
Sum of atomic charges:    1.0000000

LOEWDIN ATOMIC CHARGES
----------------------
   0 C :   -0.316084
   1 C :    0.382512
   2 N :   -0.355925
   3 N :   -0.329314
   4 C :    0.413174
   5 C :    0.384122
   6 O :   -0.431184
   7 N :   -0.575512
   8 C :    0.104886
   9 C :   -0.332160
  10 C :   -0.338734
  11 C :    0.372254
  12 N :   -0.577258
  13 C :    0.182789
  14 C :    0.477347
  15 O :   -0.353677
  16 O :   -0.711863
  17 C :    0.022579
  18 C :    0.019570
  19 C :    0.329188
  20 O :   -0.385434
  21 C :    0.382794
  22 O :   -0.402631
  23 N :   -0.425939
  24 O :   -0.389127
  25 H :    0.191887
  26 H :    0.192731
  27 H :    0.192748
  28 H :    0.303471
  29 H :    0.178019
  30 H :    0.180049
  31 H :    0.176980
  32 H :    0.181822
  33 H :    0.172803
  34 H :    0.177449
  35 H :    0.211737
  36 H :    0.213604
  37 H :    0.204572
  38 H :    0.200687
  39 H :    0.211339
  40 H :    0.226076
  41 H :    0.319730
  42 H :    0.317920

  Mayer bond orders larger than 0.100000
B(  0-C ,  1-C ) :   0.8260 B(  0-C , 25-H ) :   0.9891 B(  0-C , 26-H ) :   0.9421
B(  0-C , 27-H ) :   0.9414 B(  1-C ,  2-N ) :   1.6128 B(  1-C ,  4-C ) :   0.1227
B(  1-C , 24-O ) :   1.0671 B(  2-N ,  3-N ) :   1.2687 B(  2-N ,  5-C ) :   0.1050
B(  3-N ,  4-C ) :   1.7241 B(  4-C ,  5-C ) :   0.7963 B(  4-C ,  6-O ) :  -0.1060
B(  4-C , 24-O ) :   1.0734 B(  5-C ,  6-O ) :   1.8620 B(  5-C ,  7-N ) :   1.1514
B(  6-O , 11-C ) :   0.1166 B(  7-N ,  8-C ) :   0.7747 B(  7-N , 28-H ) :   0.8899
B(  8-C ,  9-C ) :   0.9426 B(  8-C , 10-C ) :   0.9212 B(  8-C , 11-C ) :   0.7719
B(  9-C , 29-H ) :   0.9586 B(  9-C , 30-H ) :   0.9614 B(  9-C , 31-H ) :   0.9509
B( 10-C , 32-H ) :   0.9614 B( 10-C , 33-H ) :   0.9709 B( 10-C , 34-H ) :   0.9549
B( 11-C , 12-N ) :   1.6457 B( 11-C , 19-C ) :   0.1102 B( 11-C , 23-N ) :   1.0680
B( 12-N , 13-C ) :   0.9266 B( 13-C , 14-C ) :   1.1087 B( 13-C , 19-C ) :   1.3287
B( 14-C , 15-O ) :   1.8757 B( 14-C , 16-O ) :   0.7638 B( 16-O , 17-C ) :   0.7986
B( 16-O , 18-C ) :   0.8008 B( 17-C , 35-H ) :   0.9288 B( 17-C , 36-H ) :   0.9392
B( 17-C , 37-H ) :   0.9239 B( 18-C , 38-H ) :   0.9246 B( 18-C , 39-H ) :   0.9341
B( 18-C , 40-H ) :   0.9163 B( 19-C , 20-O ) :   1.1756 B( 19-C , 21-C ) :   0.9468
B( 20-O , 41-H ) :   0.7991 B( 21-C , 22-O ) :   2.0494 B( 21-C , 23-N ) :   1.0371
B( 23-N , 42-H ) :   0.8763

Dispersion correction           -0.019438343
FINAL SINGLE POINT ENERGY     -1269.041178117046

DIPOLE MOMENT
-------------
                                X             Y             Z
Electronic contribution:      2.10782      17.83312      -1.79913
Nuclear contribution   :     -7.44890     -23.53818       4.15296
                        -----------------------------------------
Total Dipole Moment    :     -5.34109      -5.70506       2.35384
                        -----------------------------------------
Magnitude (a.u.)       :      8.16183
Magnitude (Debye)      :     20.74572

Rotational constants in cm-1:     0.015068     0.003688     0.003378
Rotational constants in MHz :   451.733118   110.567761   101.268322

                             ****ORCA TERMINATED NORMALLY****
TOTAL RUN TIME: 0 days 0 hours 2 minutes 20 seconds 294 msec
