   * xtb version 6.5.1 (579679a) compiled by 'ehlert@majestix' on 2022-07-11
          program call               : /lustre/hpc/kemi/ree/PhD/git/ReactivityQM/dep/xtb-6.5.1/bin/xtb --gfn 1 /lustre/hpc/kemi/ree/PhD/git/ReactivityQM/calculations/R02/reac01prodN16/conf05/R02_reac01prodN16_conf05_gfn1.xyz --opt --vfukui --chrg 1 --uhf 0 --alpb DMSO

   ID    Z sym.   atoms
    1    6 C      1, 2, 5, 6, 9-12, 14, 15, 18-20, 22
    2    7 N      3, 4, 8, 13, 24
    3    8 O      7, 16, 17, 21, 23, 25
    4    1 H      26-43

      * Solvation model:               ALPB
        Solvent                        DMSO
        Solvent mass                       7.8130E+01 g/mol
          :  Hamiltonian                  GFN1-xTB          :
 * total energy  :   -83.1096809 Eh     change       -0.3332445E-10 Eh
 * total energy  :   -83.1228127 Eh     change       -0.1313179E-01 Eh
 * total energy  :   -83.1274566 Eh     change       -0.4643934E-02 Eh
 * total energy  :   -83.1285913 Eh     change       -0.1134670E-02 Eh
 * total energy  :   -83.1296348 Eh     change       -0.1043569E-02 Eh
 * total energy  :   -83.1303957 Eh     change       -0.7608617E-03 Eh
 * total energy  :   -83.1309946 Eh     change       -0.5989553E-03 Eh
 * total energy  :   -83.1314109 Eh     change       -0.4162618E-03 Eh
 * total energy  :   -83.1316248 Eh     change       -0.2138853E-03 Eh
 * total energy  :   -83.1317323 Eh     change       -0.1074948E-03 Eh
 * total energy  :   -83.1337403 Eh     change       -0.1147005E-04 Eh
 * total energy  :   -83.1337508 Eh     change       -0.1053277E-04 Eh
 * total energy  :   -83.1337610 Eh     change       -0.1016235E-04 Eh
 * total energy  :   -83.1337719 Eh     change       -0.1095455E-04 Eh
 * total energy  :   -83.1337830 Eh     change       -0.1110720E-04 Eh
 * total energy  :   -83.1337923 Eh     change       -0.9237970E-05 Eh
 * total energy  :   -83.1337990 Eh     change       -0.6757075E-05 Eh
 * total energy  :   -83.1338042 Eh     change       -0.5191281E-05 Eh
 * total energy  :   -83.1338087 Eh     change       -0.4458250E-05 Eh
   *** GEOMETRY OPTIMIZATION CONVERGED AFTER 60 ITERATIONS ***

 final structure:
================
43
 xtb: 6.5.1 (579679a)
C            6.95632717640978        0.16983844463915       -0.23148305861705
C            5.65686525311194        0.54303230536428       -0.83005568830311
N            5.43941060135890        1.33997605449964       -1.83051923176137
N            4.09204711007174        1.37584220979326       -2.01947096407294
C            3.56779827269665        0.59881128259256       -1.12383434467988
C            2.13719871681526        0.30179091014543       -0.89763960482771
O            1.24199307035106        0.77645077378582       -1.57652539869875
N            1.92837747411311       -0.51189640302695        0.16634772597577
C            0.59233548076884       -1.02133390607197        0.46031447961190
C            0.64028860629810       -1.72364602623347        1.82157267906892
C            0.13870704244525       -1.98196160187908       -0.64264639417477
C           -0.35358990213321        0.15279282629075        0.56278700705598
N           -1.57931848262204        0.03270995485856        0.17550206754009
C           -2.42689919203325        1.10702734018582        0.31577775164123
C           -3.78521440152313        0.98217318873124       -0.13135244080585
O           -4.63037574798185        1.82007931416017       -0.19660808539169
O           -4.15396832535120       -0.36873825242390       -0.63040054397094
C           -5.40379979381780       -0.35931657390638       -1.38614922081028
C           -4.06856916939511       -1.46502087584559        0.33194903043789
C           -1.99824049142406        2.31751203665724        0.83783933525817
O           -2.74354096121080        3.39297993691536        0.97325056377761
C           -0.60101230795377        2.44856466986808        1.31108395195318
O           -0.11898976189130        3.44293520160684        1.80603228439793
N            0.12317542349525        1.29065093469459        1.13701148042677
O            4.51318369101424        0.04089622860627       -0.33689140260370
H            7.76364321588943        0.66672101840605       -0.76473485120478
H            7.09082407245335       -0.91037687832566       -0.28376104369415
H            6.97668342279994        0.45938605179580        0.81904128142381
H            2.71212367982595       -0.94491373065666        0.62583085919953
H            1.31746722601337       -2.57424398175785        1.77280126879759
H           -0.35473021713227       -2.07726225224672        2.08540125675260
H            0.98724482362255       -1.03345748922792        2.58841500244320
H            0.06345821377750       -1.45317997898929       -1.59204482350276
H            0.85469667725635       -2.79586980135012       -0.73596663395116
H           -0.83725587462245       -2.38967908911290       -0.38805185532956
H           -5.48505450439765       -1.33662058736426       -1.85351475638104
H           -5.31406662097372        0.42734647655605       -2.13151668115367
H           -6.23553612231742       -0.16811015258603       -0.70913770352573
H           -4.83344661305765       -1.33585892456088        1.09653622121234
H           -4.22168288707678       -2.38036716502261       -0.23400694423794
H           -3.06672463402233       -1.43693627134843        0.75205378951130
H           -3.66579474107002        3.27986899099372        0.67260693331146
H            1.08396150142157        1.30140279079078        1.45408970190429

          :  Hamiltonian                  GFN1-xTB          :
         :: total energy             -83.133808680844 Eh    ::
         :: gradient norm              0.000242268736 Eh/a0 ::
         :: HOMO-LUMO gap              2.018099932765 eV    ::
         :: SCC energy               -83.936883596951 Eh    ::
         :: -> Gsolv                  -0.128507103491 Eh    ::
         :: repulsion energy           0.830370544873 Eh    ::

    * Orbital Energies and Occupations

         #    Occupation            Energy/Eh            Energy/eV
      -------------------------------------------------------------
         1        2.0000           -0.9334508             -25.4005
       ...           ...                  ...                  ...
        55        2.0000           -0.5303779             -14.4323
        56        2.0000           -0.5224131             -14.2156
        57        2.0000           -0.5195041             -14.1364
        58        2.0000           -0.5122908             -13.9401
        59        2.0000           -0.5101943             -13.8831
        60        2.0000           -0.4904805             -13.3467
        61        2.0000           -0.4860186             -13.2252
        62        2.0000           -0.4829318             -13.1412
        63        2.0000           -0.4764034             -12.9636
        64        2.0000           -0.4687300             -12.7548
        65        2.0000           -0.4623989             -12.5825
        66        2.0000           -0.4577439             -12.4558
        67        2.0000           -0.4553272             -12.3901 (HOMO)
        68                         -0.3811634             -10.3720 (LUMO)
        69                         -0.3198815              -8.7044
        70                         -0.3130993              -8.5199
        71                         -0.2883158              -7.8455
        72                         -0.2608826              -7.0990
        73                         -0.2062819              -5.6132
        74                         -0.1992481              -5.4218
        75                         -0.1810449              -4.9265
        76                         -0.1725560              -4.6955
        77                         -0.1432603              -3.8983
        78                         -0.1420684              -3.8659
       ...                                ...                  ...
       136                          0.7206309              19.6094
      -------------------------------------------------------------
                  HL-Gap            0.0741638 Eh            2.0181 eV

Wiberg/Mayer (AO) data.
largest (>0.10) Wiberg bond orders for each atom

     #   Z sym  total        # sym  WBO       # sym  WBO       # sym  WBO
 ---------------------------------------------------------------------------
     1   6 C    3.985 --     2 C    1.033    26 H    0.982    27 H    0.962
                            28 H    0.962
     2   6 C    3.866 --     3 N    1.604    25 O    1.074     1 C    1.033
     3   7 N    2.982 --     2 C    1.604     4 N    1.204
     4   7 N    3.003 --     5 C    1.617     3 N    1.204
     5   6 C    3.875 --     4 N    1.617    25 O    1.047     6 C    1.001
     6   6 C    3.914 --     7 O    1.591     8 N    1.234     5 C    1.001
     7   8 O    1.894 --     6 C    1.591     8 N    0.170
     8   7 N    3.330 --     6 C    1.234     9 C    0.934    29 H    0.886
                             7 O    0.170
     9   6 C    3.938 --    11 C    0.987    12 C    0.980    10 C    0.977
                             8 N    0.934
    10   6 C    3.985 --    32 H    0.983    31 H    0.983    30 H    0.980
                             9 C    0.977
    11   6 C    3.986 --     9 C    0.987    34 H    0.984    35 H    0.983
                            33 H    0.981
    12   6 C    3.921 --    13 N    1.576    24 N    1.177     9 C    0.980
    13   7 N    3.037 --    12 C    1.576    14 C    1.153
    14   6 C    3.959 --    20 C    1.411    13 N    1.153    15 C    1.131
    15   6 C    3.806 --    16 O    1.751    14 C    1.131    17 O    0.774
    16   8 O    2.070 --    15 C    1.751
    17   8 O    2.502 --    18 C    0.809    19 C    0.801    15 C    0.774
    18   6 C    3.780 --    38 H    0.979    36 H    0.977    37 H    0.975
                            17 O    0.809
    19   6 C    3.775 --    39 H    0.981    40 H    0.976    41 H    0.965
                            17 O    0.801
    20   6 C    3.907 --    14 C    1.411    21 O    1.182    22 C    1.020
    21   8 O    2.157 --    20 C    1.182    42 H    0.779
    22   6 C    3.912 --    23 O    1.638    24 N    1.134    20 C    1.020
    23   8 O    1.939 --    22 C    1.638    24 N    0.142
    24   7 N    3.479 --    12 C    1.177    22 C    1.134    43 H    0.874
                            23 O    0.142
    25   8 O    2.318 --     2 C    1.074     5 C    1.047
    26   1 H    0.998 --     1 C    0.982
    27   1 H    0.996 --     1 C    0.962
    28   1 H    0.996 --     1 C    0.962
    29   1 H    0.927 --     8 N    0.886
    30   1 H    0.994 --    10 C    0.980
    31   1 H    0.999 --    10 C    0.983
    32   1 H    0.997 --    10 C    0.983
    33   1 H    1.007 --    11 C    0.981
    34   1 H    0.999 --    11 C    0.984
    35   1 H    1.006 --    11 C    0.983
    36   1 H    0.994 --    18 C    0.977
    37   1 H    0.996 --    18 C    0.975
    38   1 H    0.994 --    18 C    0.979
    39   1 H    0.991 --    19 C    0.981
    40   1 H    0.993 --    19 C    0.976
    41   1 H    1.018 --    19 C    0.965
    42   1 H    0.829 --    21 O    0.779
    43   1 H    0.924 --    24 N    0.874
 ---------------------------------------------------------------------------

           -------------------------------------------------
          | TOTAL ENERGY              -83.133808680844 Eh   |
          | GRADIENT NORM               0.000242268736 Eh/α |
          | HOMO-LUMO GAP               2.018099932765 eV   |
           -------------------------------------------------

 * finished run on 2023/06/20 at 15:43:13.641
