   * xtb version 6.5.1 (579679a) compiled by 'ehlert@majestix' on 2022-07-11
          program call               : /lustre/hpc/kemi/ree/PhD/git/ReactivityQM/dep/xtb-6.5.1/bin/xtb --gfn 1 /lustre/hpc/kemi/ree/PhD/git/ReactivityQM/calculations/RaltegravirCLI/reac02prodE09/conf06/RaltegravirCLI_reac02prodE09_conf06_gfn1.xyz --opt --vfukui --chrg -1 --uhf 0 --alpb DMSO

   ID    Z sym.   atoms
    1    6 C      1, 3-6, 9, 10, 13-18, 20-22, 24
    2    7 N      2, 7, 8, 12
    3    8 O      11, 23, 25
    4    9 F      19
    5    1 H      26-47

      * Solvation model:               ALPB
        Solvent                        DMSO
        Solvent mass                       7.8130E+01 g/mol
          :  Hamiltonian                  GFN1-xTB          :
 * total energy  :   -80.1878834 Eh     change       -0.1554227E-08 Eh
 * total energy  :   -80.1980507 Eh     change       -0.1016731E-01 Eh
 * total energy  :   -80.2022088 Eh     change       -0.4158065E-02 Eh
 * total energy  :   -80.2037070 Eh     change       -0.1498206E-02 Eh
 * total energy  :   -80.2054236 Eh     change       -0.1716657E-02 Eh
 * total energy  :   -80.2071704 Eh     change       -0.1746765E-02 Eh
 * total energy  :   -80.2096771 Eh     change       -0.2506695E-02 Eh
 * total energy  :   -80.2127812 Eh     change       -0.3104134E-02 Eh
 * total energy  :   -80.2156911 Eh     change       -0.2909898E-02 Eh
 * total energy  :   -80.2179419 Eh     change       -0.2250762E-02 Eh
 * total energy  :   -80.2332805 Eh     change       -0.1411204E-04 Eh
 * total energy  :   -80.2332951 Eh     change       -0.1462501E-04 Eh
 * total energy  :   -80.2333079 Eh     change       -0.1284125E-04 Eh
 * total energy  :   -80.2333193 Eh     change       -0.1131163E-04 Eh
 * total energy  :   -80.2333296 Eh     change       -0.1039316E-04 Eh
 * total energy  :   -80.2333384 Eh     change       -0.8743041E-05 Eh
 * total energy  :   -80.2333451 Eh     change       -0.6693277E-05 Eh
 * total energy  :   -80.2333502 Eh     change       -0.5142528E-05 Eh
 * total energy  :   -80.2333545 Eh     change       -0.4256129E-05 Eh
   *** GEOMETRY OPTIMIZATION CONVERGED AFTER 115 ITERATIONS ***

 final structure:
================
47
 xtb: 6.5.1 (579679a)
C           -4.54190387907592       -1.48978131596373        1.76050387287678
N           -3.34276716932520       -0.81691297076589        1.25741808009941
C           -3.30057466502926       -0.02481074903242        0.13738366624468
C           -4.52419734507099        0.21138444533322       -0.74175962000852
C           -4.20234667518225        1.30181340083617       -1.77702472651594
C           -4.89333882064970       -1.08772458016079       -1.47157050274297
N           -5.65613742175233        0.63821804983077        0.07990729138105
N           -2.19884908457691        0.53209129992385       -0.25766269106574
C           -1.02910501338346        0.38689137454325        0.43212111894883
C            0.15174722371586        1.09446342932623       -0.17448699098186
O            0.19306480973034        1.37573154699611       -1.36541002434895
N            1.13805323670420        1.39508510435289        0.69068912136688
C            2.34894265755072        2.07806558438864        0.26370837390168
C            3.55017796417285        1.15562812750760        0.20938480398422
C            4.79961424870715        1.69730904663324       -0.08817618712246
C            5.92214962445226        0.88709491235284       -0.15248280622985
C            5.82809549487821       -0.48568510101231        0.08030008433396
C            7.03954929188582       -1.36252220539351       -0.01658568965192
F            7.40674373895888       -2.14190658270500       -2.93337121927956
C            4.57661959594323       -1.01985841376890        0.38161843689287
C            3.45070896746493       -0.21101546122274        0.44570513933416
C           -1.00233188390530       -0.39683828114530        1.54754442573778
O            0.10819188416656       -0.63485610421095        2.28155621151843
C           -2.20502454990381       -1.06014407109732        2.00544057657664
O           -2.21511247494374       -1.78677132894262        2.99906076432420
H           -4.54774366360804       -2.52533982099614        1.41913005031050
H           -4.50476647931831       -1.47548504907680        2.85001618894391
H           -5.43256340629221       -0.97233439987454        1.41688385198337
H           -5.09127655338358        1.50591885164494       -2.37104090547930
H           -3.39795298867238        0.97820072858526       -2.43718355001853
H           -3.89684120632013        2.21801438228559       -1.27372023215340
H           -4.03996704391794       -1.45187103158381       -2.04347659577334
H           -5.20060707749495       -1.85863139451841       -0.76828826864721
H           -5.71910899941078       -0.89765092647270       -2.15560396528966
H           -6.48371615069068        0.68595020328954       -0.49650814903974
H           -5.48322407272688        1.56324831828409        0.44918448040715
H            1.04048946572025        1.19031686098012        1.66960467155943
H            2.54408360982901        2.90246495364543        0.95760456695328
H            2.16194849612176        2.50793866467446       -0.72810276082690
H            4.89377887000568        2.76359369696364       -0.26382765309413
H            6.88592988222117        1.33344735063839       -0.37703292929967
H            6.91565533345809       -2.26747471660240        0.57827509758044
H            7.93027281050496       -0.83375117054210        0.32343331594978
H            7.19859617832250       -1.65871062884739       -1.06693773237327
H            4.47603252628563       -2.08190962934068        0.58204396698365
H            2.48984485357457       -0.64925533750679        0.69332137066802
H           -0.14083413974132       -1.21163206221613        3.02725967109387

          :  Hamiltonian                  GFN1-xTB          :
         :: total energy             -80.233354483033 Eh    ::
         :: gradient norm              0.000305272588 Eh/a0 ::
         :: HOMO-LUMO gap              0.719808408035 eV    ::
         :: SCC energy               -81.127794694094 Eh    ::
         :: -> Gsolv                  -0.165093924485 Eh    ::
         :: repulsion energy           0.923711846350 Eh    ::

    * Orbital Energies and Occupations

         #    Occupation            Energy/Eh            Energy/eV
      -------------------------------------------------------------
         1        2.0000           -0.8231852             -22.4000
       ...           ...                  ...                  ...
        56        2.0000           -0.4628444             -12.5946
        57        2.0000           -0.4568788             -12.4323
        58        2.0000           -0.4504214             -12.2566
        59        2.0000           -0.4450437             -12.1103
        60        2.0000           -0.4313495             -11.7376
        61        2.0000           -0.4300331             -11.7018
        62        2.0000           -0.4242346             -11.5440
        63        2.0000           -0.4179057             -11.3718
        64        2.0000           -0.4120201             -11.2116
        65        2.0000           -0.4074548             -11.0874
        66        2.0000           -0.3325557              -9.0493
        67        2.0000           -0.3325530              -9.0492
        68        2.0000           -0.3320124              -9.0345 (HOMO)
        69        0.0000           -0.3055599              -8.3147 (LUMO)
        70                         -0.2712165              -7.3802
        71                         -0.2459808              -6.6935
        72                         -0.2418426              -6.5809
        73                         -0.2242080              -6.1010
        74                         -0.1488935              -4.0516
        75                         -0.1341056              -3.6492
        76                         -0.1216403              -3.3100
        77                         -0.1212689              -3.2999
        78                         -0.1147402              -3.1222
        79                         -0.1142879              -3.1099
       ...                                ...                  ...
       144                          0.7175140              19.5246
      -------------------------------------------------------------
                  HL-Gap            0.0264525 Eh            0.7198 eV

Wiberg/Mayer (AO) data.
largest (>0.10) Wiberg bond orders for each atom

     #   Z sym  total        # sym  WBO       # sym  WBO       # sym  WBO
 ---------------------------------------------------------------------------
     1   6 C    3.921 --    26 H    0.976    27 H    0.976    28 H    0.968
                             2 N    0.928
     2   7 N    3.515 --     3 C    1.175    24 C    1.134     1 C    0.928
                            25 O    0.132
     3   6 C    3.923 --     8 N    1.561     2 N    1.175     4 C    0.975
     4   6 C    3.965 --     5 C    0.992     6 C    0.985     7 N    0.979
                             3 C    0.975
     5   6 C    3.995 --     4 C    0.992    29 H    0.986    31 H    0.984
                            30 H    0.983
     6   6 C    3.994 --    32 H    0.986     4 C    0.985    34 H    0.983
                            33 H    0.982
     7   7 N    2.994 --     4 C    0.979    36 H    0.940    35 H    0.939
     8   7 N    3.030 --     3 C    1.561     9 C    1.201
     9   6 C    3.964 --    22 C    1.511     8 N    1.201    10 C    0.981
    10   6 C    3.908 --    11 O    1.578    12 N    1.270     9 C    0.981
    11   8 O    1.873 --    10 C    1.578    12 N    0.174
    12   7 N    3.360 --    10 C    1.270    13 C    0.947    37 H    0.897
                            11 O    0.174
    13   6 C    3.944 --    14 C    0.993    38 H    0.969    39 H    0.964
                            12 N    0.947
    14   6 C    3.985 --    21 C    1.420    15 C    1.405    13 C    0.993
                            17 C    0.105
    15   6 C    3.995 --    16 C    1.459    14 C    1.405    40 H    0.974
                            20 C    0.108
    16   6 C    3.995 --    15 C    1.459    17 C    1.399    41 H    0.973
                            21 C    0.107
    17   6 C    3.987 --    20 C    1.410    16 C    1.399    18 C    1.032
                            14 C    0.105
    18   6 C    3.989 --    17 C    1.032    42 H    0.985    43 H    0.983
                            44 H    0.927
    19   9 F    0.100
    20   6 C    3.995 --    21 C    1.445    17 C    1.410    45 H    0.973
                            15 C    0.108
    21   6 C    3.995 --    20 C    1.445    14 C    1.420    46 H    0.971
                            16 C    0.107
    22   6 C    3.917 --     9 C    1.511    24 C    1.098    23 O    1.065
    23   8 O    2.058 --    22 C    1.065    47 H    0.806
    24   6 C    3.917 --    25 O    1.534     2 N    1.134    22 C    1.098
    25   8 O    1.880 --    24 C    1.534     2 N    0.132
    26   1 H    1.004 --     1 C    0.976
    27   1 H    1.009 --     1 C    0.976
    28   1 H    1.029 --     1 C    0.968
    29   1 H    1.004 --     5 C    0.986
    30   1 H    1.013 --     5 C    0.983
    31   1 H    1.010 --     5 C    0.984
    32   1 H    1.003 --     6 C    0.986
    33   1 H    1.004 --     6 C    0.982
    34   1 H    1.000 --     6 C    0.983
    35   1 H    0.954 --     7 N    0.939
    36   1 H    0.956 --     7 N    0.940
    37   1 H    0.948 --    12 N    0.897
    38   1 H    1.007 --    13 C    0.969
    39   1 H    1.015 --    13 C    0.964
    40   1 H    1.001 --    15 C    0.974
    41   1 H    1.003 --    16 C    0.973
    42   1 H    1.006 --    18 C    0.985
    43   1 H    1.006 --    18 C    0.983
    44   1 H    1.038 --    18 C    0.927
    45   1 H    1.003 --    20 C    0.973
    46   1 H    1.011 --    21 C    0.971
    47   1 H    0.849 --    23 O    0.806
 ---------------------------------------------------------------------------

           -------------------------------------------------
          | TOTAL ENERGY              -80.233354483033 Eh   |
          | GRADIENT NORM               0.000305272588 Eh/α |
          | HOMO-LUMO GAP               0.719808408035 eV   |
           -------------------------------------------------

 * finished run on 2023/06/20 at 15:10:14.817
