   * xtb version 6.5.1 (579679a) compiled by 'ehlert@majestix' on 2022-07-11
          program call               : /lustre/hpc/kemi/ree/PhD/git/ReactivityQM/dep/xtb-6.5.1/bin/xtb --gfn 1 /lustre/hpc/kemi/ree/PhD/git/ReactivityQM/calculations/R02/reac01prodN08/conf15/R02_reac01prodN08_conf15_gfn1.xyz --opt --vfukui --chrg 1 --uhf 0 --alpb DMSO

   ID    Z sym.   atoms
    1    6 C      1, 3, 4, 6, 8-11, 13, 15, 18, 19, 22, 24
    2    8 O      2, 5, 14, 20, 23, 25
    3    7 N      7, 12, 16, 17, 21
    4    1 H      26-43

      * Solvation model:               ALPB
        Solvent                        DMSO
        Solvent mass                       7.8130E+01 g/mol
          :  Hamiltonian                  GFN1-xTB          :
 * total energy  :   -83.0100308 Eh     change       -0.9180212E-11 Eh
 * total energy  :   -83.0247765 Eh     change       -0.1474565E-01 Eh
 * total energy  :   -83.0337084 Eh     change       -0.8931899E-02 Eh
 * total energy  :   -83.0368977 Eh     change       -0.3189340E-02 Eh
 * total energy  :   -83.0390660 Eh     change       -0.2168306E-02 Eh
 * total energy  :   -83.0407080 Eh     change       -0.1642006E-02 Eh
 * total energy  :   -83.0420979 Eh     change       -0.1389896E-02 Eh
 * total energy  :   -83.0435819 Eh     change       -0.1483971E-02 Eh
 * total energy  :   -83.0453372 Eh     change       -0.1755322E-02 Eh
 * total energy  :   -83.0474744 Eh     change       -0.2137154E-02 Eh
 * total energy  :   -83.1331344 Eh     change       -0.1152165E-04 Eh
 * total energy  :   -83.1331439 Eh     change       -0.9474552E-05 Eh
 * total energy  :   -83.1331555 Eh     change       -0.1159720E-04 Eh
 * total energy  :   -83.1331633 Eh     change       -0.7816669E-05 Eh
 * total energy  :   -83.1331750 Eh     change       -0.1170125E-04 Eh
 * total energy  :   -83.1331846 Eh     change       -0.9651791E-05 Eh
 * total energy  :   -83.1331933 Eh     change       -0.8660309E-05 Eh
 * total energy  :   -83.1331981 Eh     change       -0.4835469E-05 Eh
 * total energy  :   -83.1332028 Eh     change       -0.4651122E-05 Eh
   *** GEOMETRY OPTIMIZATION CONVERGED AFTER 148 ITERATIONS ***

 final structure:
================
43
 xtb: 6.5.1 (579679a)
C           -2.23891470278011       -2.84301920597639       -1.11164175091202
O           -2.19266105158661       -1.42309908762082       -0.82144685117195
C           -3.28422884442708       -0.81413907063488       -0.50646154683515
C           -4.24331929614299        1.32038600012750        0.48112326600216
O           -4.39979109935479       -1.21347377487056       -0.44538388556018
C           -2.97173695855435        0.74993046955252       -0.15347073320361
N           -1.89850474697949        0.70366660509981        0.78010561053106
C           -0.69118782911631        0.91842161391784        0.42591747042834
C            0.40594311376561        0.92305153862328        1.46582828450789
C            0.63841939377595        2.39349566460440        1.85367338760114
C           -0.00093681609917        0.08113176100242        2.67847223919093
N            1.60782832998216        0.36552078144320        0.84333529345472
C            2.80513210052834        0.31889172214812        1.49011041262888
O            3.05068839049663        0.85368464077937        2.55373393155675
C            3.81963796201341       -0.44705549730076        0.73114378785110
N            5.06154402939637       -0.64649733354845        1.04316350322818
N            5.59941748426924       -1.40743843728478        0.05118856363709
C            4.65303465741239       -1.62813190298535       -0.80710908050146
C            4.73008346591164       -2.40157775702583       -2.06472569372975
O            3.49888715977209       -1.04799490590615       -0.43613445853050
N           -0.32104946867520        1.25567076576467       -0.86577730390327
C           -1.20427307654865        1.45442045391937       -1.87535587282628
O           -0.93216892454128        1.78984495557991       -3.00467866854743
C           -2.62905063184427        1.27527244400970       -1.46017110041731
O           -3.52475620813948        1.55660687857504       -2.32268985887686
H           -3.24414988289653       -3.12417231267111       -1.42554035721958
H           -1.51621345657506       -3.01117977727994       -1.90661433937340
H           -1.94934380717834       -3.38334619733849       -0.21051484604177
H           -4.05896181169198        2.35391057906684        0.76512764988430
H           -4.48983444340226        0.73773891114042        1.36589027135430
H           -5.06295783392381        1.27334514581967       -0.23246236308014
H            1.35564497372927        2.45505265114538        2.66979225145263
H           -0.30433343515137        2.83386312507113        2.17317009816741
H            1.01912575899413        2.94637045878487        0.99749253124622
H           -0.16458261738926       -0.95045871696440        2.37303021458817
H            0.78677639756439        0.11607809303443        3.42941448054342
H           -0.92235396656053        0.47561169694818        3.10268558473619
H            1.47866616752690       -0.27178229591731        0.07562311044836
H            5.72971537676686       -2.81366913071937       -2.18309640590000
H            3.99825827337879       -3.20849917264513       -2.04894944971211
H            4.49687981784656       -1.75526894431984       -2.91063271022483
H            0.65778576349592        1.39933545530775       -1.08074541372768
H           -3.14815670708004        1.83950010952735       -3.18816125273043

          :  Hamiltonian                  GFN1-xTB          :
         :: total energy             -83.133202776578 Eh    ::
         :: gradient norm              0.000558472797 Eh/a0 ::
         :: HOMO-LUMO gap              0.830658215529 eV    ::
         :: SCC energy               -83.934892832568 Eh    ::
         :: -> Gsolv                  -0.123985159153 Eh    ::
         :: repulsion energy           0.829053495668 Eh    ::

    * Orbital Energies and Occupations

         #    Occupation            Energy/Eh            Energy/eV
      -------------------------------------------------------------
         1        2.0000           -0.9184643             -24.9927
       ...           ...                  ...                  ...
        55        2.0000           -0.5330250             -14.5043
        56        2.0000           -0.5292950             -14.4028
        57        2.0000           -0.5261815             -14.3181
        58        2.0000           -0.5163247             -14.0499
        59        2.0000           -0.5109027             -13.9024
        60        2.0000           -0.5103794             -13.8881
        61        2.0000           -0.4987385             -13.5714
        62        2.0000           -0.4927123             -13.4074
        63        2.0000           -0.4853764             -13.2078
        64        2.0000           -0.4747583             -12.9188
        65        2.0000           -0.4696841             -12.7808
        66        2.0000           -0.4581802             -12.4677
        67        2.0000           -0.4568003             -12.4302 (HOMO)
        68        0.0000           -0.4262742             -11.5995 (LUMO)
        69                         -0.3364438              -9.1551
        70                         -0.3201191              -8.7109
        71                         -0.3089406              -8.4067
        72                         -0.2695758              -7.3355
        73                         -0.2611173              -7.1054
        74                         -0.2072964              -5.6408
        75                         -0.1645621              -4.4780
        76                         -0.1549178              -4.2155
        77                         -0.1507692              -4.1026
        78                         -0.1449392              -3.9440
       ...                                ...                  ...
       136                          0.7523645              20.4729
      -------------------------------------------------------------
                  HL-Gap            0.0305261 Eh            0.8307 eV

Wiberg/Mayer (AO) data.
largest (>0.10) Wiberg bond orders for each atom

     #   Z sym  total        # sym  WBO       # sym  WBO       # sym  WBO
 ---------------------------------------------------------------------------
     1   6 C    3.814 --    26 H    0.981    27 H    0.978    28 H    0.975
                             2 O    0.835
     2   8 O    2.256 --     3 C    1.225     1 C    0.835     5 O    0.150
     3   6 C    3.857 --     5 O    1.749     2 O    1.225     6 C    0.702
     4   6 C    3.965 --    31 H    0.980    30 H    0.980    29 H    0.977
                             6 C    0.949
     5   8 O    2.096 --     3 C    1.749     2 O    0.150
     6   6 C    3.956 --    24 C    1.109     7 N    1.021     4 C    0.949
                             3 C    0.702
     7   7 N    3.029 --     8 C    1.692     6 C    1.021
     8   6 C    3.912 --     7 N    1.692    21 N    1.098     9 C    0.982
     9   6 C    3.933 --    11 C    0.987     8 C    0.982    10 C    0.966
                            12 N    0.932
    10   6 C    3.982 --    33 H    0.985    34 H    0.984    32 H    0.973
                             9 C    0.966
    11   6 C    3.985 --     9 C    0.987    35 H    0.985    37 H    0.983
                            36 H    0.981
    12   7 N    3.310 --    13 C    1.214     9 C    0.932    38 H    0.893
                            14 O    0.166
    13   6 C    3.911 --    14 O    1.611    12 N    1.214    15 C    0.999
    14   8 O    1.923 --    13 C    1.611    12 N    0.166
    15   6 C    3.874 --    16 N    1.620    20 O    1.045    13 C    0.999
    16   7 N    3.003 --    15 C    1.620    17 N    1.203
    17   7 N    2.983 --    18 C    1.607    16 N    1.203
    18   6 C    3.866 --    17 N    1.607    20 O    1.071    19 C    1.033
    19   6 C    3.985 --    18 C    1.033    39 H    0.982    40 H    0.963
                            41 H    0.961
    20   8 O    2.315 --    18 C    1.071    15 C    1.045
    21   7 N    3.482 --    22 C    1.197     8 C    1.098    42 H    0.862
                            23 O    0.166
    22   6 C    3.921 --    23 O    1.642    21 N    1.197    24 C    0.972
    23   8 O    1.981 --    22 C    1.642    21 N    0.166
    24   6 C    3.803 --    25 O    1.367     6 C    1.109    22 C    0.972
    25   8 O    2.285 --    24 C    1.367    43 H    0.741
    26   1 H    0.998 --     1 C    0.981
    27   1 H    1.001 --     1 C    0.978
    28   1 H    0.999 --     1 C    0.975
    29   1 H    0.994 --     4 C    0.977
    30   1 H    0.997 --     4 C    0.980
    31   1 H    0.998 --     4 C    0.980
    32   1 H    1.008 --    10 C    0.973
    33   1 H    1.000 --    10 C    0.985
    34   1 H    0.999 --    10 C    0.984
    35   1 H    1.001 --    11 C    0.985
    36   1 H    1.003 --    11 C    0.981
    37   1 H    1.006 --    11 C    0.983
    38   1 H    0.935 --    12 N    0.893
    39   1 H    0.998 --    19 C    0.982
    40   1 H    0.996 --    19 C    0.963
    41   1 H    0.996 --    19 C    0.961
    42   1 H    0.908 --    21 N    0.862
    43   1 H    0.785 --    25 O    0.741
 ---------------------------------------------------------------------------

           -------------------------------------------------
          | TOTAL ENERGY              -83.133202776578 Eh   |
          | GRADIENT NORM               0.000558472797 Eh/α |
          | HOMO-LUMO GAP               0.830658215529 eV   |
           -------------------------------------------------

 * finished run on 2023/06/20 at 15:28:16.366
