   * xtb version 6.5.1 (579679a) compiled by 'ehlert@majestix' on 2022-07-11
          program call               : /lustre/hpc/kemi/ree/PhD/git/ReactivityQM/dep/xtb-6.5.1/bin/xtb --gfn 1 /lustre/hpc/kemi/ree/PhD/git/ReactivityQM/calculations/R02oxygendeprot/reac01prodE01/conf04/R02oxygendeprot_reac01prodE01_conf04_gfn1.xyz --opt --vfukui --chrg -2 --uhf 0 --alpb DMSO

   ID    Z sym.   atoms
    1    6 C      1, 3, 5, 7-10, 12, 13, 15, 18, 19, 22, 24
    2    8 O      2, 4, 14, 20, 23, 25
    3    7 N      6, 11, 16, 17, 21
    4    1 H      26-42

      * Solvation model:               ALPB
        Solvent                        DMSO
        Solvent mass                       7.8130E+01 g/mol
          :  Hamiltonian                  GFN1-xTB          :
 * total energy  :   -83.6321541 Eh     change       -0.2211209E-10 Eh
 * total energy  :   -83.6436903 Eh     change       -0.1153626E-01 Eh
 * total energy  :   -83.6475289 Eh     change       -0.3838597E-02 Eh
 * total energy  :   -83.6485682 Eh     change       -0.1039277E-02 Eh
 * total energy  :   -83.6492345 Eh     change       -0.6662924E-03 Eh
 * total energy  :   -83.6496064 Eh     change       -0.3719584E-03 Eh
 * total energy  :   -83.6498245 Eh     change       -0.2180866E-03 Eh
 * total energy  :   -83.6499324 Eh     change       -0.1078337E-03 Eh
 * total energy  :   -83.6499945 Eh     change       -0.6217272E-04 Eh
 * total energy  :   -83.6500485 Eh     change       -0.5395179E-04 Eh
 * total energy  :   -83.6514762 Eh     change       -0.2164157E-04 Eh
 * total energy  :   -83.6514866 Eh     change       -0.1031940E-04 Eh
 * total energy  :   -83.6514980 Eh     change       -0.1142884E-04 Eh
 * total energy  :   -83.6514258 Eh     change        0.7219850E-04 Eh
 * total energy  :   -83.6515147 Eh     change       -0.8892879E-04 Eh
 * total energy  :   -83.6515213 Eh     change       -0.6552922E-05 Eh
 * total energy  :   -83.6515310 Eh     change       -0.9694224E-05 Eh
 * total energy  :   -83.6515395 Eh     change       -0.8484800E-05 Eh
 * total energy  :   -83.6515436 Eh     change       -0.4154147E-05 Eh
   *** GEOMETRY OPTIMIZATION CONVERGED AFTER 60 ITERATIONS ***

 final structure:
================
42
 xtb: 6.5.1 (579679a)
C           -6.11498348307840       -1.63606005791943       -0.12465289643749
O           -4.86194811656186       -0.97342996161209       -0.15334105637880
C           -4.82769872887658        0.19314715591107       -0.87898854541927
O           -5.83735489821981        0.58159676816591       -1.45174913333262
C           -3.52668531028410        0.83028448338531       -0.85265196111342
N           -2.55349512358328        0.16321664344444       -0.12404504730462
C           -1.36852799438721        0.64606531766752       -0.03287868051841
C           -0.29078785920493       -0.03693303696372        0.80208245009786
C           -0.51589519345785       -1.55834023423738        0.73614798535162
C           -0.45768688917003        0.47692832582230        2.24189780864765
N            0.99671490028207        0.37193155421144        0.23433560913487
C            2.26915732584240       -0.05322143468694        1.00535599122932
C            2.91245376165724        1.29077076070781        1.48662100576858
O            2.12272250033168       -0.95078301467121        1.93586796245444
C            3.18713675590495       -0.58716534370365       -0.14610692875778
N            2.82262598589943       -1.27314890766327       -1.18447392146671
N            3.97558202594568       -1.65380631953807       -1.84409131076213
C            4.95712276640573       -1.17793442002245       -1.15575727282482
C            6.40656319114909       -1.29984848941461       -1.44581231286793
O            4.53541983203781       -0.49644175788055       -0.07137567734548
N           -1.02679634911281        1.83931861336946       -0.63118008119906
C           -1.87641806129499        2.59846144942707       -1.38070717571305
O           -1.48220694405960        3.65140422278539       -1.88823339135890
C           -3.28114578176529        2.05769481214080       -1.52329337647629
O           -4.10781612754189        2.70456039298483       -2.19855896423771
H           -6.42218444167200       -1.93740569738638       -1.13182883884801
H           -6.89024187941719       -0.98816511571849        0.29820218461461
H           -5.99725207196249       -2.52014043695507        0.50104658008050
H            0.16992258427030       -2.07609468679869        1.40451307133911
H           -1.54183498552883       -1.78840445766023        1.02681629430322
H           -0.35280787597766       -1.91487285898667       -0.28169636616131
H            0.24519143207933       -0.01526025836960        2.91271933788063
H           -0.28545424076512        1.55293548915760        2.27492500292063
H           -1.47288180958047        0.27452704177189        2.58530288543943
H            1.05962045851088       -0.04740139917762       -0.69466415203208
H            3.88684442566231        1.07924863929404        1.92392489769349
H            3.02661396743192        1.98562131025569        0.65654426892615
H            2.27285968202443        1.73611363122504        2.24637734228057
H            6.84314390715245       -0.31310726639926       -1.60428691213959
H            6.54866688274326       -1.90336357440012       -2.33943410046268
H            6.92378335212110       -1.76636030855931       -0.60739928289481
H           -0.07003857194552        2.15582642699874       -0.52547429211828

          :  Hamiltonian                  GFN1-xTB          :
         :: total energy             -83.651543609438 Eh    ::
         :: gradient norm              0.000935795463 Eh/a0 ::
         :: HOMO-LUMO gap              2.216460892945 eV    ::
         :: SCC energy               -84.385126683607 Eh    ::
         :: -> Gsolv                  -0.264008963033 Eh    ::
         :: repulsion energy           0.759672725090 Eh    ::

    * Orbital Energies and Occupations

         #    Occupation            Energy/Eh            Energy/eV
      -------------------------------------------------------------
         1        2.0000           -0.8172801             -22.2393
       ...           ...                  ...                  ...
        56        2.0000           -0.4407863             -11.9944
        57        2.0000           -0.4394833             -11.9590
        58        2.0000           -0.4347685             -11.8307
        59        2.0000           -0.4272223             -11.6253
        60        2.0000           -0.4226735             -11.5015
        61        2.0000           -0.4124894             -11.2244
        62        2.0000           -0.4083604             -11.1121
        63        2.0000           -0.3986758             -10.8485
        64        2.0000           -0.3718150             -10.1176
        65        2.0000           -0.3635686              -9.8932
        66        2.0000           -0.3511491              -9.5553
        67        2.0000           -0.3425719              -9.3219
        68        2.0000           -0.3399919              -9.2517 (HOMO)
        69                         -0.2585385              -7.0352 (LUMO)
        70                         -0.2243868              -6.1059
        71                         -0.2185937              -5.9482
        72                         -0.2085390              -5.6746
        73                         -0.1848304              -5.0295
        74                         -0.1279429              -3.4815
        75                         -0.1188285              -3.2335
        76                         -0.0969759              -2.6388
        77                         -0.0933961              -2.5414
        78                         -0.0838634              -2.2820
        79                         -0.0791404              -2.1535
       ...                                ...                  ...
       134                          0.7693511              20.9351
      -------------------------------------------------------------
                  HL-Gap            0.0814534 Eh            2.2165 eV

Wiberg/Mayer (AO) data.
largest (>0.10) Wiberg bond orders for each atom

     #   Z sym  total        # sym  WBO       # sym  WBO       # sym  WBO
 ---------------------------------------------------------------------------
     1   6 C    3.904 --    28 H    0.987    26 H    0.980    27 H    0.980
                             2 O    0.932
     2   8 O    2.131 --     3 C    1.014     1 C    0.932     4 O    0.105
     3   6 C    3.848 --     4 O    1.580     5 C    1.134     2 O    1.014
     4   8 O    1.858 --     3 C    1.580     2 O    0.105
     5   6 C    3.920 --    24 C    1.274     6 N    1.144     3 C    1.134
                            25 O    0.130
     6   7 N    3.020 --     7 C    1.631     5 C    1.144
     7   6 C    3.923 --     6 N    1.631    21 N    1.101     8 C    0.971
     8   6 C    3.967 --     9 C    0.985    10 C    0.981    11 N    0.979
                             7 C    0.971
     9   6 C    3.995 --    31 H    0.986     8 C    0.985    30 H    0.985
                            29 H    0.979
    10   6 C    3.993 --    34 H    0.988    33 H    0.986     8 C    0.981
                            32 H    0.976
    11   7 N    3.003 --     8 C    0.979    35 H    0.945    12 C    0.845
    12   6 C    3.936 --    14 O    1.212    13 C    0.941    15 C    0.883
                            11 N    0.845
    13   6 C    3.992 --    37 H    0.991    36 H    0.987    38 H    0.986
                            12 C    0.941
    14   8 O    1.563 --    12 C    1.212
    15   6 C    3.804 --    16 N    1.648    20 O    1.048    12 C    0.883
    16   7 N    2.981 --    15 C    1.648    17 N    1.147
    17   7 N    2.976 --    18 C    1.657    16 N    1.147
    18   6 C    3.888 --    17 N    1.657    20 O    1.062    19 C    1.024
    19   6 C    3.993 --    18 C    1.024    40 H    0.985    41 H    0.971
                            39 H    0.970
    20   8 O    2.295 --    18 C    1.062    15 C    1.048
    21   7 N    3.443 --    22 C    1.182     7 C    1.101    42 H    0.888
                            23 O    0.136
    22   6 C    3.884 --    23 O    1.555    21 N    1.182    24 C    0.972
    23   8 O    1.834 --    22 C    1.555    21 N    0.136
    24   6 C    3.944 --    25 O    1.507     5 C    1.274    22 C    0.972
    25   8 O    1.810 --    24 C    1.507     5 C    0.130
    26   1 H    1.015 --     1 C    0.980
    27   1 H    1.016 --     1 C    0.980
    28   1 H    1.017 --     1 C    0.987
    29   1 H    1.035 --     9 C    0.979
    30   1 H    1.021 --     9 C    0.985
    31   1 H    1.011 --     9 C    0.986
    32   1 H    1.031 --    10 C    0.976
    33   1 H    1.011 --    10 C    0.986
    34   1 H    1.011 --    10 C    0.988
    35   1 H    0.995 --    11 N    0.945
    36   1 H    1.017 --    13 C    0.987
    37   1 H    1.016 --    13 C    0.991
    38   1 H    1.018 --    13 C    0.986
    39   1 H    1.002 --    19 C    0.970
    40   1 H    1.003 --    19 C    0.985
    41   1 H    1.002 --    19 C    0.971
    42   1 H    0.973 --    21 N    0.888
 ---------------------------------------------------------------------------

           -------------------------------------------------
          | TOTAL ENERGY              -83.651543609438 Eh   |
          | GRADIENT NORM               0.000935795463 Eh/α |
          | HOMO-LUMO GAP               2.216460892945 eV   |
           -------------------------------------------------

 * finished run on 2023/06/21 at 17:00:55.091
