   * xtb version 6.5.1 (579679a) compiled by 'ehlert@majestix' on 2022-07-11
          program call               : /lustre/hpc/kemi/ree/PhD/git/ReactivityQM/dep/xtb-6.5.1/bin/xtb --gfn 1 /lustre/hpc/kemi/ree/PhD/git/ReactivityQM/calculations/R01/reac01prodN04/conf08/R01_reac01prodN04_conf08_gfn1.xyz --opt --vfukui --chrg 1 --uhf 0 --alpb DMSO

   ID    Z sym.   atoms
    1    6 C      1, 3, 5, 8-10
    2    8 O      2, 4, 11
    3    7 N      6, 7
    4    1 H      12-20

      * Solvation model:               ALPB
        Solvent                        DMSO
        Solvent mass                       7.8130E+01 g/mol
          :  Hamiltonian                  GFN1-xTB          :
 * total energy  :   -37.6284666 Eh     change       -0.7801759E-11 Eh
 * total energy  :   -37.6405802 Eh     change       -0.1211356E-01 Eh
 * total energy  :   -37.6441311 Eh     change       -0.3550926E-02 Eh
 * total energy  :   -37.6447793 Eh     change       -0.6481785E-03 Eh
 * total energy  :   -37.6452344 Eh     change       -0.4551018E-03 Eh
 * total energy  :   -37.6453883 Eh     change       -0.1539213E-03 Eh
 * total energy  :   -37.6455376 Eh     change       -0.1493026E-03 Eh
 * total energy  :   -37.6456594 Eh     change       -0.1218095E-03 Eh
 * total energy  :   -37.6457201 Eh     change       -0.6072178E-04 Eh
 * total energy  :   -37.6457554 Eh     change       -0.3526126E-04 Eh
 * total energy  :   -37.6457660 Eh     change       -0.1063556E-04 Eh
 * total energy  :   -37.6457709 Eh     change       -0.4837112E-05 Eh
   *** GEOMETRY OPTIMIZATION CONVERGED AFTER 12 ITERATIONS ***

 final structure:
================
20
 xtb: 6.5.1 (579679a)
C            4.12742248270789       -0.04534528747798       -0.01438327875641
O            2.70301469374613        0.16688553100842       -0.05226129649052
C            1.93812535821940       -0.85567715523960        0.23578919678152
O            2.29161705509603       -1.96187451721970        0.53482882077459
C            0.47923747647030       -0.48548230290001        0.14490033498013
N           -0.53260695361881       -1.27219540721493        0.34879459368360
N           -1.61502980800139       -0.50121121177692        0.14961817355798
C           -2.93799019108134       -1.07632438133100        0.27691235288944
C           -1.24413226935766        0.72350412455536       -0.16960335296786
C           -2.07247575339657        1.89909850068413       -0.48049176406252
O            0.07167038411554        0.75557711622301       -0.17751806925216
H            4.58061282563068        0.91456096178150       -0.24931495891204
H            4.42021235657054       -0.38179407817360        0.98148374807499
H            4.40265936536542       -0.79678828355492       -0.75604692598669
H           -2.93681087014566       -1.74697725953800        1.13369120201741
H           -3.65495869682799       -0.27231938830632        0.41522207244747
H           -3.16543525347645       -1.63201063517710       -0.63244642444214
H           -2.59832919631409        1.74064312104142       -1.42407877467907
H           -2.82061490541764        2.04941381821755        0.29829004611271
H           -1.43618610028435        2.77831773439871       -0.56338669577038

          :  Hamiltonian                  GFN1-xTB          :
         :: total energy             -37.645770864692 Eh    ::
         :: gradient norm              0.000429135509 Eh/a0 ::
         :: HOMO-LUMO gap              4.089256632748 eV    ::
         :: SCC energy               -38.000825351602 Eh    ::
         :: -> Gsolv                  -0.086179025232 Eh    ::
         :: repulsion energy           0.363081707729 Eh    ::

    * Orbital Energies and Occupations

         #    Occupation            Energy/Eh            Energy/eV
      -------------------------------------------------------------
         1        2.0000           -0.9449523             -25.7135
       ...           ...                  ...                  ...
        18        2.0000           -0.6258031             -17.0290
        19        2.0000           -0.6137641             -16.7014
        20        2.0000           -0.6010378             -16.3551
        21        2.0000           -0.5947636             -16.1843
        22        2.0000           -0.5929685             -16.1355
        23        2.0000           -0.5805939             -15.7988
        24        2.0000           -0.5761318             -15.6773
        25        2.0000           -0.5658282             -15.3970
        26        2.0000           -0.5526510             -15.0384
        27        2.0000           -0.5397067             -14.6862
        28        2.0000           -0.5293530             -14.4044
        29        2.0000           -0.5251357             -14.2897
        30        2.0000           -0.5228246             -14.2268 (HOMO)
        31                         -0.3725472             -10.1375 (LUMO)
        32                         -0.3503140              -9.5325
        33                         -0.2566634              -6.9842
        34                         -0.1877060              -5.1077
        35                         -0.1756280              -4.7791
        36                         -0.1532880              -4.1712
        37                         -0.1242832              -3.3819
        38                         -0.1140178              -3.1026
        39                         -0.1063426              -2.8937
        40                         -0.0926578              -2.5213
        41                         -0.0891687              -2.4264
       ...                                ...                  ...
        62                          0.7347088              19.9924
      -------------------------------------------------------------
                  HL-Gap            0.1502774 Eh            4.0893 eV

Wiberg/Mayer (AO) data.
largest (>0.10) Wiberg bond orders for each atom

     #   Z sym  total        # sym  WBO       # sym  WBO       # sym  WBO
 ---------------------------------------------------------------------------
     1   6 C    3.837 --    12 H    0.984    13 H    0.977    14 H    0.977
                             2 O    0.865
     2   8 O    2.245 --     3 C    1.175     1 C    0.865     4 O    0.158
     3   6 C    3.878 --     4 O    1.692     2 O    1.175     5 C    0.946
     4   8 O    1.970 --     3 C    1.692     2 O    0.158
     5   6 C    3.854 --     6 N    1.621    11 O    1.064     3 C    0.946
     6   7 N    2.991 --     5 C    1.621     7 N    1.159
     7   7 N    3.631 --     9 C    1.416     6 N    1.159     8 C    0.908
     8   6 C    3.881 --    16 H    0.979    15 H    0.971    17 H    0.962
                             7 N    0.908
     9   6 C    3.838 --     7 N    1.416    11 O    1.156    10 C    1.042
    10   6 C    3.958 --     9 C    1.042    20 H    0.971    19 H    0.949
                            18 H    0.938
    11   8 O    2.388 --     9 C    1.156     5 C    1.064
    12   1 H    1.005 --     1 C    0.984
    13   1 H    1.000 --     1 C    0.977
    14   1 H    1.000 --     1 C    0.977
    15   1 H    0.990 --     8 C    0.971
    16   1 H    0.989 --     8 C    0.979
    17   1 H    0.989 --     8 C    0.962
    18   1 H    0.984 --    10 C    0.938
    19   1 H    0.986 --    10 C    0.949
    20   1 H    0.985 --    10 C    0.971
 ---------------------------------------------------------------------------

           -------------------------------------------------
          | TOTAL ENERGY              -37.645770864692 Eh   |
          | GRADIENT NORM               0.000429135509 Eh/α |
          | HOMO-LUMO GAP               4.089256632748 eV   |
           -------------------------------------------------

 * finished run on 2023/06/20 at 14:55:33.494
