   * xtb version 6.5.1 (579679a) compiled by 'ehlert@majestix' on 2022-07-11
          program call               : /lustre/hpc/kemi/ree/PhD/git/ReactivityQM/dep/xtb-6.5.1/bin/xtb --gfn 1 /lustre/hpc/kemi/ree/PhD/git/ReactivityQM/calculations/RaltegravirCLI/reac01prodN06/conf03/RaltegravirCLI_reac01prodN06_conf03_gfn1.xyz --opt --vfukui --chrg 1 --uhf 0 --alpb DMSO

   ID    Z sym.   atoms
    1    6 C      1, 2, 5-7
    2    7 N      3, 4
    3    8 O      8, 10
    4   17 Cl     9
    5    1 H      11-16

      * Solvation model:               ALPB
        Solvent                        DMSO
        Solvent mass                       7.8130E+01 g/mol
          :  Hamiltonian                  GFN1-xTB          :
 * total energy  :   -33.2707622 Eh     change       -0.1885070E-10 Eh
 * total energy  :   -33.2823006 Eh     change       -0.1153840E-01 Eh
 * total energy  :   -33.2905674 Eh     change       -0.8266808E-02 Eh
 * total energy  :   -33.2932947 Eh     change       -0.2727289E-02 Eh
 * total energy  :   -33.2953216 Eh     change       -0.2026938E-02 Eh
 * total energy  :   -33.2969148 Eh     change       -0.1593217E-02 Eh
 * total energy  :   -33.2987545 Eh     change       -0.1839611E-02 Eh
 * total energy  :   -33.3042484 Eh     change       -0.5493907E-02 Eh
 * total energy  :   -33.3182106 Eh     change       -0.1396222E-01 Eh
 * total energy  :   -33.3404964 Eh     change       -0.2228582E-01 Eh
 * total energy  :   -33.3942484 Eh     change       -0.2781144E-04 Eh
 * total energy  :   -33.3942603 Eh     change       -0.1195812E-04 Eh
 * total energy  :   -33.3942688 Eh     change       -0.8481601E-05 Eh
 * total energy  :   -33.3942766 Eh     change       -0.7757725E-05 Eh
 * total energy  :   -33.3942879 Eh     change       -0.1132948E-04 Eh
 * total energy  :   -33.3942906 Eh     change       -0.2766751E-05 Eh
 * total energy  :   -33.3942970 Eh     change       -0.6317309E-05 Eh
 * total energy  :   -33.3942981 Eh     change       -0.1164432E-05 Eh
 * total energy  :   -33.3942995 Eh     change       -0.1412623E-05 Eh
   *** GEOMETRY OPTIMIZATION CONVERGED AFTER 60 ITERATIONS ***

 final structure:
================
16
 xtb: 6.5.1 (579679a)
C            2.41682321386517       -0.61995507346010        0.80721205181778
C            1.54791151783149       -0.21242550445052       -0.30827534410266
N            1.89215939012450        0.01104967341327       -1.55461412894782
N            0.79262352069617        0.36669724903747       -2.21414827100911
C           -0.19574485627510        0.35060600945085       -1.34946442046506
C           -1.55397559730091        0.67034140905143       -1.65621651975351
C           -2.12911175975963        0.07306070626936        1.29382381889918
O           -2.03340600693379        0.99989544265715       -2.68319035464937
Cl          -2.78876105438245        0.57441152816364       -0.29099627766443
O            0.24098674633979       -0.01338762337451       -0.12534841459554
H            1.95130855699085       -1.43445690189796        1.36058354130681
H            3.38954769512820       -0.92608189631974        0.42813273847790
H            2.54375469361804        0.21799062436373        1.49495819073073
H           -2.98952432218928        0.05794351488082        1.95881342275331
H           -1.68860265912274       -0.91523688858544        1.20979799995067
H           -1.39599007862878        0.79954773080065        1.62893096725123

          :  Hamiltonian                  GFN1-xTB          :
         :: total energy             -33.394299541108 Eh    ::
         :: gradient norm              0.000666424598 Eh/a0 ::
         :: HOMO-LUMO gap              2.775584134096 eV    ::
         :: SCC energy               -33.688420024820 Eh    ::
         :: -> Gsolv                  -0.093310011147 Eh    ::
         :: repulsion energy           0.301427472606 Eh    ::

    * Orbital Energies and Occupations

         #    Occupation            Energy/Eh            Energy/eV
      -------------------------------------------------------------
         1        2.0000           -1.0660655             -29.0091
       ...           ...                  ...                  ...
        15        2.0000           -0.6297534             -17.1365
        16        2.0000           -0.6110677             -16.6280
        17        2.0000           -0.6049868             -16.4625
        18        2.0000           -0.5927024             -16.1283
        19        2.0000           -0.5777678             -15.7219
        20        2.0000           -0.5725592             -15.5801
        21        2.0000           -0.5589264             -15.2092
        22        2.0000           -0.5566452             -15.1471
        23        2.0000           -0.5434704             -14.7886
        24        2.0000           -0.5418929             -14.7457
        25        2.0000           -0.5270620             -14.3421
        26        2.0000           -0.5014828             -13.6460
        27        2.0000           -0.4969732             -13.5233 (HOMO)
        28                         -0.3949723             -10.7477 (LUMO)
        29                         -0.3159842              -8.5984
        30                         -0.3042605              -8.2794
        31                         -0.3008552              -8.1867
        32                         -0.2725525              -7.4165
        33                         -0.1840095              -5.0072
        34                         -0.1837305              -4.9996
        35                         -0.1620744              -4.4103
        36                         -0.1620214              -4.4088
        37                         -0.1565719              -4.2605
        38                         -0.1117328              -3.0404
       ...                                ...                  ...
        57                          0.7527220              20.4826
      -------------------------------------------------------------
                  HL-Gap            0.1020008 Eh            2.7756 eV

Wiberg/Mayer (AO) data.
largest (>0.10) Wiberg bond orders for each atom

     #   Z sym  total        # sym  WBO       # sym  WBO       # sym  WBO
 ---------------------------------------------------------------------------
     1   6 C    3.974 --     2 C    1.046    12 H    0.976    11 H    0.958
                            13 H    0.942
     2   6 C    3.844 --     3 N    1.503    10 O    1.099     1 C    1.046
     3   7 N    3.001 --     2 C    1.503     4 N    1.304
     4   7 N    3.022 --     5 C    1.500     3 N    1.304
     5   6 C    3.884 --     4 N    1.500     6 C    1.113    10 O    1.038
     6   6 C    3.869 --     8 O    1.841     5 C    1.113     9 Cl   0.776
     7   6 C    3.864 --    16 H    0.980    15 H    0.980    14 H    0.969
                             9 Cl   0.898
     8   8 O    2.156 --     6 C    1.841     9 Cl   0.138
     9  17 Cl   1.893 --     7 C    0.898     6 C    0.776     8 O    0.138
    10   8 O    2.338 --     2 C    1.099     5 C    1.038
    11   1 H    0.990 --     1 C    0.958
    12   1 H    0.992 --     1 C    0.976
    13   1 H    0.988 --     1 C    0.942
    14   1 H    0.992 --     7 C    0.969
    15   1 H    1.000 --     7 C    0.980
    16   1 H    1.000 --     7 C    0.980
 ---------------------------------------------------------------------------

           -------------------------------------------------
          | TOTAL ENERGY              -33.394299541108 Eh   |
          | GRADIENT NORM               0.000666424598 Eh/α |
          | HOMO-LUMO GAP               2.775584134096 eV   |
           -------------------------------------------------

 * finished run on 2023/06/20 at 14:55:33.650
