   * xtb version 6.5.1 (579679a) compiled by 'ehlert@majestix' on 2022-07-11
          program call               : /lustre/hpc/kemi/ree/PhD/git/ReactivityQM/dep/xtb-6.5.1/bin/xtb --gfn 1 /lustre/hpc/kemi/ree/PhD/git/ReactivityQM/calculations/R02oxygendeprot/reac01prodN02/conf05/R02oxygendeprot_reac01prodN02_conf05_gfn1.xyz --opt --vfukui --chrg 0 --uhf 0 --alpb DMSO

   ID    Z sym.   atoms
    1    6 C      1, 3, 5, 7-10, 12, 14, 15, 18, 19, 22, 24
    2    8 O      2, 4, 13, 20, 23, 25
    3    7 N      6, 11, 16, 17, 21
    4    1 H      26-42

      * Solvation model:               ALPB
        Solvent                        DMSO
        Solvent mass                       7.8130E+01 g/mol
          :  Hamiltonian                  GFN1-xTB          :
 * total energy  :   -82.9413845 Eh     change       -0.6107825E-10 Eh
 * total energy  :   -82.9597050 Eh     change       -0.1832042E-01 Eh
 * total energy  :   -82.9675225 Eh     change       -0.7817561E-02 Eh
 * total energy  :   -82.9687446 Eh     change       -0.1222090E-02 Eh
 * total energy  :   -82.9695431 Eh     change       -0.7984935E-03 Eh
 * total energy  :   -82.9698368 Eh     change       -0.2936977E-03 Eh
 * total energy  :   -82.9700983 Eh     change       -0.2614446E-03 Eh
 * total energy  :   -82.9703175 Eh     change       -0.2192699E-03 Eh
 * total energy  :   -82.9704587 Eh     change       -0.1412082E-03 Eh
 * total energy  :   -82.9705864 Eh     change       -0.1276663E-03 Eh
 * total energy  :   -82.9715044 Eh     change       -0.3482047E-04 Eh
 * total energy  :   -82.9715239 Eh     change       -0.1947987E-04 Eh
 * total energy  :   -82.9715525 Eh     change       -0.2860045E-04 Eh
 * total energy  :   -82.9715851 Eh     change       -0.3257045E-04 Eh
 * total energy  :   -82.9716081 Eh     change       -0.2303033E-04 Eh
 * total energy  :   -82.9716006 Eh     change        0.7512842E-05 Eh
 * total energy  :   -82.9716162 Eh     change       -0.1557639E-04 Eh
 * total energy  :   -82.9716241 Eh     change       -0.7943203E-05 Eh
 * total energy  :   -82.9716291 Eh     change       -0.4966701E-05 Eh
   *** GEOMETRY OPTIMIZATION CONVERGED AFTER 39 ITERATIONS ***

 final structure:
================
42
 xtb: 6.5.1 (579679a)
C            6.26280782951653        2.59368386868625        0.95388518934288
O            5.16375970571182        2.35829609549043        0.08201599144312
C            4.27643699816014        1.42360009169154        0.49094185517107
O            4.43092483940814        0.82972857248907        1.55010641911904
C            3.15908504325760        1.20217606024573       -0.42121122885049
N            2.28749655290205        0.23643249766435        0.03690201829258
C            1.24836903600064       -0.08324185146321       -0.63689610589606
C            0.32969075194115       -1.17930985154795       -0.14258613699031
C            0.41316277328312       -2.38736654840064       -1.08372464358964
C            0.69650982991019       -1.54904000032165        1.29546855703927
N           -1.05352016323631       -0.63602365630939       -0.17526436632398
C           -2.14719512188511       -1.27802224630558        0.14808875387848
O           -2.06595273516884       -2.50424241359640        0.57910782811046
C           -3.21537512439420       -3.27905949673357        0.95019855316779
C           -3.40096340482746       -0.57919320693570        0.00091397736348
N           -4.61715278668539       -0.97995270172634        0.26001647293452
N           -5.44156587393822        0.03366440022052       -0.06336888683049
C           -4.69478492921790        1.00889702426706       -0.50628962051095
C           -5.13184076821893        2.33358747263029       -0.98554463102322
O           -3.39715192650184        0.68014354220483       -0.48641482075339
N            0.94714926293724        0.50632938152100       -1.85005074621920
C            1.72707938672404        1.48312303259478       -2.42920254397849
O            1.39737122298927        1.96006386261471       -3.50771734277438
C            2.96401685208236        1.88602136879508       -1.65204589971248
O            3.70310853583374        2.75991609317010       -2.13136040877743
H            6.85386469770589        3.39555863764213        0.51355959873745
H            6.87506603299631        1.69205468375174        1.05362426335550
H            5.91088605342258        2.89230294097102        1.94583466912624
H            0.05799612600863       -2.11343124118016       -2.07499727364699
H           -0.18459894677339       -3.21468205553959       -0.71100783816465
H            1.45211273962316       -2.70717060594586       -1.15338205859231
H            1.75043625788737       -1.82419425823727        1.32429133553171
H            0.54077825205689       -0.69192714635207        1.94854758513794
H            0.09886858134623       -2.38500585860819        1.64744853855977
H           -1.17376667445699        0.31831380594809       -0.49199065993664
H           -3.73189014481367       -2.80370321313109        1.78529795352538
H           -3.89379254205521       -3.37135810914610        0.10117177110150
H           -2.82740587032019       -4.25341042853434        1.24128029598762
H           -6.21682564731134        2.39313260720641       -0.96076377294686
H           -4.77540048452885        2.49414324912911       -2.00249799727227
H           -4.70583645455298        3.11352952088879       -0.35454340727923
H            0.12804323717602        0.22563508018462       -2.35871423685490

          :  Hamiltonian                  GFN1-xTB          :
         :: total energy             -82.971629065687 Eh    ::
         :: gradient norm              0.000894978538 Eh/a0 ::
         :: HOMO-LUMO gap              0.213824995661 eV    ::
         :: SCC energy               -83.748178338005 Eh    ::
         :: -> Gsolv                  -0.104118303027 Eh    ::
         :: repulsion energy           0.801899853742 Eh    ::

    * Orbital Energies and Occupations

         #    Occupation            Energy/Eh            Energy/eV
      -------------------------------------------------------------
         1        2.0000           -0.8979503             -24.4345
       ...           ...                  ...                  ...
        55        2.0000           -0.5076512             -13.8139
        56        2.0000           -0.5028722             -13.6838
        57        2.0000           -0.4982082             -13.5569
        58        2.0000           -0.4920364             -13.3890
        59        2.0000           -0.4835959             -13.1593
        60        2.0000           -0.4797684             -13.0552
        61        2.0000           -0.4700051             -12.7895
        62        2.0000           -0.4670317             -12.7086
        63        2.0000           -0.4520320             -12.3004
        64        2.0000           -0.4438823             -12.0787
        65        2.0000           -0.4298561             -11.6970
        66        2.0000           -0.3889960             -10.5851
        67        1.9685           -0.3768621             -10.2549 (HOMO)
        68        0.0315           -0.3690042             -10.0411 (LUMO)
        69                         -0.2843929              -7.7387
        70                         -0.2789936              -7.5918
        71                         -0.2545972              -6.9279
        72                         -0.2494750              -6.7886
        73                         -0.2056860              -5.5970
        74                         -0.1585534              -4.3145
        75                         -0.1522411              -4.1427
        76                         -0.1364083              -3.7119
        77                         -0.1340168              -3.6468
        78                         -0.1238626              -3.3705
       ...                                ...                  ...
       134                          0.7545760              20.5331
      -------------------------------------------------------------
                  HL-Gap            0.0078579 Eh            0.2138 eV

Wiberg/Mayer (AO) data.
largest (>0.10) Wiberg bond orders for each atom

     #   Z sym  total        # sym  WBO       # sym  WBO       # sym  WBO
 ---------------------------------------------------------------------------
     1   6 C    3.894 --    26 H    0.987    27 H    0.980    28 H    0.980
                             2 O    0.920
     2   8 O    2.168 --     3 C    1.060     1 C    0.920     4 O    0.113
     3   6 C    3.850 --     4 O    1.584     5 C    1.099     2 O    1.060
     4   8 O    1.855 --     3 C    1.584     2 O    0.113
     5   6 C    3.895 --    24 C    1.260     6 N    1.166     3 C    1.099
                            25 O    0.124
     6   7 N    3.036 --     7 C    1.628     5 C    1.166
     7   6 C    3.924 --     6 N    1.628    21 N    1.089     8 C    0.978
     8   6 C    3.893 --    10 C    0.990     9 C    0.979     7 C    0.978
                            11 N    0.874
     9   6 C    3.982 --    29 H    0.983    30 H    0.981    31 H    0.981
                             8 C    0.979
    10   6 C    3.983 --     8 C    0.990    34 H    0.984    33 H    0.984
                            32 H    0.979
    11   7 N    3.471 --    12 C    1.454    35 H    0.874     8 C    0.874
                            13 O    0.108
    12   6 C    3.880 --    11 N    1.454    13 O    1.188    15 C    1.090
    13   8 O    2.270 --    12 C    1.188    14 C    0.864    11 N    0.108
    14   6 C    3.831 --    38 H    0.980    36 H    0.974    37 H    0.974
                            13 O    0.864
    15   6 C    3.881 --    16 N    1.542    12 C    1.090    20 O    1.046
    16   7 N    3.015 --    15 C    1.542    17 N    1.248
    17   7 N    2.986 --    18 C    1.553    16 N    1.248
    18   6 C    3.847 --    17 N    1.553    20 O    1.086    19 C    1.039
    19   6 C    3.979 --    18 C    1.039    39 H    0.980    40 H    0.956
                            41 H    0.954
    20   8 O    2.329 --    18 C    1.086    15 C    1.046
    21   7 N    3.412 --    22 C    1.143     7 C    1.089    42 H    0.896
                            23 O    0.133
    22   6 C    3.871 --    23 O    1.599    21 N    1.143    24 C    0.962
    23   8 O    1.875 --    22 C    1.599    21 N    0.133
    24   6 C    3.937 --    25 O    1.537     5 C    1.260    22 C    0.962
    25   8 O    1.833 --    24 C    1.537     5 C    0.124
    26   1 H    1.015 --     1 C    0.987
    27   1 H    1.012 --     1 C    0.980
    28   1 H    1.013 --     1 C    0.980
    29   1 H    0.999 --     9 C    0.983
    30   1 H    1.003 --     9 C    0.981
    31   1 H    0.999 --     9 C    0.981
    32   1 H    1.012 --    10 C    0.979
    33   1 H    1.005 --    10 C    0.984
    34   1 H    1.005 --    10 C    0.984
    35   1 H    0.925 --    11 N    0.874
    36   1 H    1.008 --    14 C    0.974
    37   1 H    1.009 --    14 C    0.974
    38   1 H    1.003 --    14 C    0.980
    39   1 H    0.995 --    19 C    0.980
    40   1 H    0.992 --    19 C    0.956
    41   1 H    0.992 --    19 C    0.954
    42   1 H    0.940 --    21 N    0.896
 ---------------------------------------------------------------------------

           -------------------------------------------------
          | TOTAL ENERGY              -82.971629065687 Eh   |
          | GRADIENT NORM               0.000894978538 Eh/α |
          | HOMO-LUMO GAP               0.213824995661 eV   |
           -------------------------------------------------

 * finished run on 2023/06/21 at 17:18:11.007
