   * xtb version 6.5.1 (579679a) compiled by 'ehlert@majestix' on 2022-07-11
          program call               : /lustre/hpc/kemi/ree/PhD/git/ReactivityQM/dep/xtb-6.5.1/bin/xtb --gfn 1 /lustre/hpc/kemi/ree/PhD/git/ReactivityQM/calculations/RaltegravirCLI/reac02prodN12/conf05/RaltegravirCLI_reac02prodN12_conf05_gfn1.xyz --opt --vfukui --chrg 1 --uhf 0 --alpb DMSO

   ID    Z sym.   atoms
    1    6 C      1, 3, 5, 6, 8, 9, 12-16, 18, 19, 21-24
    2    7 N      2, 11, 20, 25
    3    8 O      4, 7, 10
    4    9 F      17
    5    1 H      26-47

      * Solvation model:               ALPB
        Solvent                        DMSO
        Solvent mass                       7.8130E+01 g/mol
          :  Hamiltonian                  GFN1-xTB          :
 * total energy  :   -79.4718202 Eh     change       -0.1088551E-10 Eh
 * total energy  :   -79.4826131 Eh     change       -0.1079289E-01 Eh
 * total energy  :   -79.4872835 Eh     change       -0.4670407E-02 Eh
 * total energy  :   -79.4881995 Eh     change       -0.9159540E-03 Eh
 * total energy  :   -79.4890164 Eh     change       -0.8169162E-03 Eh
 * total energy  :   -79.4894662 Eh     change       -0.4498262E-03 Eh
 * total energy  :   -79.4899810 Eh     change       -0.5147896E-03 Eh
 * total energy  :   -79.4905398 Eh     change       -0.5587914E-03 Eh
 * total energy  :   -79.4909790 Eh     change       -0.4392546E-03 Eh
 * total energy  :   -79.4914131 Eh     change       -0.4340475E-03 Eh
 * total energy  :   -79.4933157 Eh     change       -0.1875018E-04 Eh
 * total energy  :   -79.4933311 Eh     change       -0.1534906E-04 Eh
 * total energy  :   -79.4933416 Eh     change       -0.1057722E-04 Eh
 * total energy  :   -79.4933508 Eh     change       -0.9121380E-05 Eh
 * total energy  :   -79.4933593 Eh     change       -0.8498950E-05 Eh
 * total energy  :   -79.4933667 Eh     change       -0.7396577E-05 Eh
 * total energy  :   -79.4933732 Eh     change       -0.6551793E-05 Eh
 * total energy  :   -79.4933796 Eh     change       -0.6340687E-05 Eh
 * total energy  :   -79.4933845 Eh     change       -0.4914652E-05 Eh
   *** GEOMETRY OPTIMIZATION CONVERGED AFTER 39 ITERATIONS ***

 final structure:
================
47
 xtb: 6.5.1 (579679a)
C           -3.68718578275221        1.76829310710666        1.70554899000967
N           -2.43576808924935        1.04141228658035        1.46885602494513
C           -1.56521985190321        1.05246044454932        2.62820537548686
O           -1.84325755809914        1.73892398514327        3.56167225655072
C           -0.43628777885864        0.04867902644765        2.57259484067273
C           -1.06668972204979       -1.28391022170576        3.10137896070858
O            0.58865426634993        0.46646776310713        3.40401721950759
C           -0.03741020657654       -0.24553810229732        1.16165016620846
C            1.29513789428858       -0.88973195197247        0.89119825240224
O            2.09222458306041       -1.10801231726830        1.79407439763744
N            1.47884237417514       -1.21056566544607       -0.39006345242146
C            2.68838284936746       -1.89125804534176       -0.84696099137429
C            3.70254079908005       -0.87804389505241       -1.33271790121793
C            3.81800192561398       -0.59250642010369       -2.69029868032301
C            4.73971744651694        0.34543425588858       -3.13487118633562
C            5.52907549277412        0.98522976883708       -2.19619462812426
F            6.41984337503943        1.89390646919842       -2.61754503436000
C            5.43500642551109        0.72726510074143       -0.83955030317698
C            4.50970027409434       -0.21333397450154       -0.41172905709478
N           -0.85981012980720       -0.09664263869274        0.17875635953488
C           -2.08777394959591        0.47660960469415        0.32883629120240
C           -2.97417513974231        0.35766924134597       -0.89034852663338
C           -4.02744032754338       -0.71598686303307       -0.55440160857376
C           -2.15617705503390       -0.08586068791470       -2.11159479849860
N           -3.64217247220104        1.61779464319204       -1.16740070395899
H           -3.44098726990902        2.73169730537472        2.15144165219604
H           -4.28731536418902        1.18713497977827        2.40451777327040
H           -4.21119911134489        1.90775964079241        0.76491655080191
H           -1.90241420097117       -1.59071262031510        2.47897019738183
H           -1.39974061821116       -1.11158784810683        4.12297845199583
H           -0.29503808007399       -2.05013791109377        3.09238634884778
H            1.38291448957182       -0.08409484889917        3.24998653012749
H            0.76049431146067       -0.98722906153845       -1.06091542058465
H            3.08431097132849       -2.45990475956442       -0.00084973761738
H            2.39834280669131       -2.57238849700133       -1.64883284453631
H            3.18719222318227       -1.10482060237432       -3.40619951074633
H            4.84090154614440        0.57776817844126       -4.18691607533720
H            6.07039131395210        1.25147410039060       -0.13711415793116
H            4.41156058909489       -0.43482232507177        0.64438166824413
H           -4.66139093109534       -0.38901498843223        0.26711472626783
H           -4.64417370779473       -0.88335671355353       -1.43565844656246
H           -3.53841529090968       -1.64942540427614       -0.28104513293552
H           -2.81209399374768       -0.12427592105851       -2.97913298310996
H           -1.72521275150273       -1.07111558665842       -1.94652015708088
H           -1.35460818751883        0.62407621861903       -2.30433306818344
H           -2.97694370973322        2.27748114992273       -1.54562860493779
H           -4.36433867688343        1.46244460115959       -1.85665802235341

          :  Hamiltonian                  GFN1-xTB          :
         :: total energy             -79.493384470227 Eh    ::
         :: gradient norm              0.000471259936 Eh/a0 ::
         :: HOMO-LUMO gap              0.713090647954 eV    ::
         :: SCC energy               -80.384429226057 Eh    ::
         :: -> Gsolv                  -0.109371465958 Eh    ::
         :: repulsion energy           0.922150176938 Eh    ::

    * Orbital Energies and Occupations

         #    Occupation            Energy/Eh            Energy/eV
      -------------------------------------------------------------
         1        2.0000           -0.8864886             -24.1226
       ...           ...                  ...                  ...
        55        2.0000           -0.5217038             -14.1963
        56        2.0000           -0.5209744             -14.1764
        57        2.0000           -0.5183010             -14.1037
        58        2.0000           -0.5156797             -14.0324
        59        2.0000           -0.5134711             -13.9723
        60        2.0000           -0.5110260             -13.9057
        61        2.0000           -0.4939120             -13.4400
        62        2.0000           -0.4810056             -13.0888
        63        2.0000           -0.4742632             -12.9054
        64        2.0000           -0.4714411             -12.8286
        65        2.0000           -0.4592592             -12.4971
        66        2.0000           -0.4464146             -12.1476
        67        2.0000           -0.4414863             -12.0135 (HOMO)
        68        0.0000           -0.4152807             -11.3004 (LUMO)
        69                         -0.3440097              -9.3610
        70                         -0.3009014              -8.1879
        71                         -0.2811294              -7.6499
        72                         -0.2763715              -7.5205
        73                         -0.2444374              -6.6515
        74                         -0.1613029              -4.3893
        75                         -0.1548384              -4.2134
        76                         -0.1532341              -4.1697
        77                         -0.1456463              -3.9632
        78                         -0.1418891              -3.8610
       ...                                ...                  ...
       144                          0.6942463              18.8914
      -------------------------------------------------------------
                  HL-Gap            0.0262056 Eh            0.7131 eV

Wiberg/Mayer (AO) data.
largest (>0.10) Wiberg bond orders for each atom

     #   Z sym  total        # sym  WBO       # sym  WBO       # sym  WBO
 ---------------------------------------------------------------------------
     1   6 C    3.880 --    26 H    0.967    27 H    0.965    28 H    0.957
                             2 N    0.906
     2   7 N    3.568 --    21 C    1.443     3 C    0.958     1 C    0.906
     3   6 C    3.853 --     4 O    1.800     2 N    0.958     5 C    0.954
     4   8 O    2.045 --     3 C    1.800
     5   6 C    3.944 --     7 O    1.005     8 C    0.996     3 C    0.954
                             6 C    0.867
     6   6 C    3.967 --    29 H    0.986    31 H    0.976    30 H    0.973
                             5 C    0.867
     7   8 O    1.917 --     5 C    1.005    32 H    0.798
     8   6 C    3.904 --    20 N    1.624     5 C    0.996     9 C    0.974
     9   6 C    3.921 --    10 O    1.556    11 N    1.316     8 C    0.974
    10   8 O    1.933 --     9 C    1.556    11 N    0.201
    11   7 N    3.433 --     9 C    1.316    12 C    0.924    33 H    0.888
                            10 O    0.201
    12   6 C    3.923 --    13 C    0.985    35 H    0.972    34 H    0.968
                            11 N    0.924
    13   6 C    3.983 --    14 C    1.422    19 C    1.416    12 C    0.985
    14   6 C    3.992 --    15 C    1.441    13 C    1.422    36 H    0.970
                            18 C    0.110
    15   6 C    3.990 --    14 C    1.441    16 C    1.401    37 H    0.968
                            19 C    0.111
    16   6 C    3.862 --    15 C    1.401    18 C    1.397    17 F    0.931
    17   9 F    1.060 --    16 C    0.931
    18   6 C    3.991 --    19 C    1.447    16 C    1.397    38 H    0.969
                            14 C    0.110
    19   6 C    3.992 --    18 C    1.447    13 C    1.416    39 H    0.969
                            15 C    0.111
    20   7 N    3.069 --     8 C    1.624    21 C    1.192
    21   6 C    3.872 --     2 N    1.443    20 N    1.192    22 C    0.992
    22   6 C    3.956 --    21 C    0.992    25 N    0.988    24 C    0.985
                            23 C    0.946
    23   6 C    3.984 --    42 H    0.984    40 H    0.983    41 H    0.974
                            22 C    0.946
    24   6 C    3.988 --    22 C    0.985    45 H    0.983    43 H    0.982
                            44 H    0.982
    25   7 N    3.006 --    22 C    0.988    46 H    0.929    47 H    0.926
    26   1 H    0.998 --     1 C    0.967
    27   1 H    0.994 --     1 C    0.965
    28   1 H    1.020 --     1 C    0.957
    29   1 H    0.995 --     6 C    0.986
    30   1 H    0.995 --     6 C    0.973
    31   1 H    0.996 --     6 C    0.976
    32   1 H    0.856 --     7 O    0.798
    33   1 H    0.944 --    11 N    0.888
    34   1 H    1.002 --    12 C    0.968
    35   1 H    0.998 --    12 C    0.972
    36   1 H    0.998 --    14 C    0.970
    37   1 H    0.996 --    15 C    0.968
    38   1 H    0.997 --    18 C    0.969
    39   1 H    1.005 --    19 C    0.969
    40   1 H    0.998 --    23 C    0.983
    41   1 H    0.993 --    23 C    0.974
    42   1 H    0.998 --    23 C    0.984
    43   1 H    0.998 --    24 C    0.982
    44   1 H    1.006 --    24 C    0.982
    45   1 H    1.003 --    24 C    0.983
    46   1 H    0.944 --    25 N    0.929
    47   1 H    0.940 --    25 N    0.926
 ---------------------------------------------------------------------------

           -------------------------------------------------
          | TOTAL ENERGY              -79.493384470227 Eh   |
          | GRADIENT NORM               0.000471259936 Eh/α |
          | HOMO-LUMO GAP               0.713090647954 eV   |
           -------------------------------------------------

 * finished run on 2023/06/20 at 15:33:33.054
