   * xtb version 6.5.1 (579679a) compiled by 'ehlert@majestix' on 2022-07-11
          program call               : /lustre/hpc/kemi/ree/PhD/git/ReactivityQM/dep/xtb-6.5.1/bin/xtb --gfn 1 /lustre/hpc/kemi/ree/PhD/git/ReactivityQM/calculations/RaltegravirCLI/reac02prodE09/conf01/RaltegravirCLI_reac02prodE09_conf01_gfn1.xyz --opt --vfukui --chrg -1 --uhf 0 --alpb DMSO

   ID    Z sym.   atoms
    1    6 C      1, 3-6, 9, 10, 13-18, 20-22, 24
    2    7 N      2, 7, 8, 12
    3    8 O      11, 23, 25
    4    9 F      19
    5    1 H      26-47

      * Solvation model:               ALPB
        Solvent                        DMSO
        Solvent mass                       7.8130E+01 g/mol
          :  Hamiltonian                  GFN1-xTB          :
 * total energy  :   -80.1868008 Eh     change       -0.2402345E-09 Eh
 * total energy  :   -80.1967576 Eh     change       -0.9956781E-02 Eh
 * total energy  :   -80.2005525 Eh     change       -0.3794953E-02 Eh
 * total energy  :   -80.2017911 Eh     change       -0.1238620E-02 Eh
 * total energy  :   -80.2031564 Eh     change       -0.1365304E-02 Eh
 * total energy  :   -80.2045020 Eh     change       -0.1345531E-02 Eh
 * total energy  :   -80.2067711 Eh     change       -0.2269140E-02 Eh
 * total energy  :   -80.2099985 Eh     change       -0.3227411E-02 Eh
 * total energy  :   -80.2121679 Eh     change       -0.2169405E-02 Eh
 * total energy  :   -80.2148105 Eh     change       -0.2642585E-02 Eh
 * total energy  :   -80.2323208 Eh     change       -0.1124967E-04 Eh
 * total energy  :   -80.2323330 Eh     change       -0.1223725E-04 Eh
 * total energy  :   -80.2323391 Eh     change       -0.6035880E-05 Eh
 * total energy  :   -80.2323484 Eh     change       -0.9391000E-05 Eh
 * total energy  :   -80.2323559 Eh     change       -0.7480408E-05 Eh
 * total energy  :   -80.2323659 Eh     change       -0.1001073E-04 Eh
 * total energy  :   -80.2323747 Eh     change       -0.8804494E-05 Eh
 * total energy  :   -80.2323802 Eh     change       -0.5493857E-05 Eh
 * total energy  :   -80.2323842 Eh     change       -0.3940552E-05 Eh
   *** GEOMETRY OPTIMIZATION CONVERGED AFTER 102 ITERATIONS ***

 final structure:
================
47
 xtb: 6.5.1 (579679a)
C           -4.30698602456525       -2.33633394602312       -1.05448406996040
N           -3.17379578983136       -1.44674291146805       -0.79577085282961
C           -3.26960965267293       -0.28938551272416       -0.06330941073132
C           -4.59147347683650        0.19831854986257        0.51758419048016
C           -5.38187892254053        0.91224813627416       -0.58939255399628
C           -4.30516838110126        1.19487712012356        1.65379351262619
N           -5.37651452597541       -0.92024426371803        1.02999374137744
N           -2.24703065825062        0.48168872914604        0.13266793427348
C           -1.01451439699405        0.18425822779643       -0.37594125533009
C            0.06388778633396        1.17681453965506       -0.03723823293549
O           -0.02219981265582        1.91512629668872        0.93601187325954
N            1.10627517529662        1.19506854071113       -0.88823031394286
C            2.25700441222725        2.05525540670869       -0.66536347899926
C            3.45763630074953        1.29417552242791       -0.13908923116272
C            4.66617007794170        1.97077269299720        0.01926368312229
C            5.78512988897416        1.31171784974776        0.50344915631245
C            5.72843857359416       -0.04080321594209        0.84332352181855
C            6.94876820695054       -0.75745051282808        1.33646521673587
F            8.63820090487840       -1.69687220790823       -1.00662205981920
C            4.51641268871078       -0.71032902465656        0.68490794503309
C            3.39425940161054       -0.05266624812977        0.20066293294681
C           -0.84317782502019       -0.97194100860188       -1.07760181920887
O            0.34094024543216       -1.38275792244939       -1.58522056403020
C           -1.96049138660068       -1.86469209274140       -1.31201732541924
O           -1.82979375703841       -2.91455644640280       -1.94111695688978
H           -5.19258056989584       -1.75838773770315       -1.29593823063100
H           -4.50516036189343       -2.94490189436028       -0.17396291869022
H           -4.04742356787750       -2.97955498877452       -1.89489342995993
H           -4.78519002430232        1.72204474856154       -1.00842762198189
H           -5.64958072705474        0.22492307128243       -1.38956644198238
H           -6.29696392765278        1.32888531668679       -0.17176685549051
H           -5.24589869636146        1.50168503022867        2.10637450698652
H           -3.79081402923495        2.07465442509455        1.26867326674796
H           -3.68144830307300        0.72797543226535        2.41476423685192
H           -4.99899104614851       -1.22695096866456        1.91743096673837
H           -6.32412699383036       -0.61316656373399        1.19334997835496
H            1.12347603959178        0.58856687674153       -1.69040915410177
H            2.51176721507004        2.54768713083141       -1.61006289461375
H            1.96282201379310        2.83066076732412        0.05214849075136
H            4.72961750581745        3.02324036945711       -0.23617424225600
H            6.71362086401190        1.86121780063429        0.62393142076321
H            6.67717935690952       -1.63545416714077        1.92242868628634
H            7.55497608386204       -1.09206737471507        0.47826865921844
H            7.56636997992640       -0.09909950701753        1.94758148143740
H            4.44050967280335       -1.76130061200561        0.94598960984375
H            2.46368975765556       -0.59758809196327        0.08533757623595
H            0.19366270470176       -2.22861836191723       -2.04865667361672

          :  Hamiltonian                  GFN1-xTB          :
         :: total energy             -80.232384177105 Eh    ::
         :: gradient norm              0.000543936934 Eh/a0 ::
         :: HOMO-LUMO gap              0.692927704425 eV    ::
         :: SCC energy               -81.126940283209 Eh    ::
         :: -> Gsolv                  -0.160617161201 Eh    ::
         :: repulsion energy           0.923893738574 Eh    ::

    * Orbital Energies and Occupations

         #    Occupation            Energy/Eh            Energy/eV
      -------------------------------------------------------------
         1        2.0000           -0.8235608             -22.4102
       ...           ...                  ...                  ...
        56        2.0000           -0.4627984             -12.5934
        57        2.0000           -0.4573104             -12.4440
        58        2.0000           -0.4504145             -12.2564
        59        2.0000           -0.4455408             -12.1238
        60        2.0000           -0.4312102             -11.7338
        61        2.0000           -0.4303536             -11.7105
        62        2.0000           -0.4242864             -11.5454
        63        2.0000           -0.4179709             -11.3736
        64        2.0000           -0.4120625             -11.2128
        65        2.0000           -0.4075273             -11.0894
        66        2.0000           -0.3319019              -9.0315
        67        2.0000           -0.3318991              -9.0314
        68        2.0000           -0.3313494              -9.0165 (HOMO)
        69        0.0000           -0.3058847              -8.3235 (LUMO)
        70                         -0.2713201              -7.3830
        71                         -0.2460683              -6.6959
        72                         -0.2419439              -6.5836
        73                         -0.2245328              -6.1098
        74                         -0.1490565              -4.0560
        75                         -0.1313498              -3.5742
        76                         -0.1231983              -3.3524
        77                         -0.1213726              -3.3027
        78                         -0.1158683              -3.1529
        79                         -0.1143131              -3.1106
       ...                                ...                  ...
       144                          0.7173970              19.5214
      -------------------------------------------------------------
                  HL-Gap            0.0254646 Eh            0.6929 eV

Wiberg/Mayer (AO) data.
largest (>0.10) Wiberg bond orders for each atom

     #   Z sym  total        # sym  WBO       # sym  WBO       # sym  WBO
 ---------------------------------------------------------------------------
     1   6 C    3.923 --    26 H    0.978    28 H    0.976    27 H    0.976
                             2 N    0.929
     2   7 N    3.514 --     3 C    1.173    24 C    1.135     1 C    0.929
                            25 O    0.132
     3   6 C    3.923 --     8 N    1.562     2 N    1.173     4 C    0.976
     4   6 C    3.966 --     6 C    0.989     7 N    0.984     5 C    0.982
                             3 C    0.976
     5   6 C    3.994 --    29 H    0.985    31 H    0.983     4 C    0.982
                            30 H    0.979
     6   6 C    3.995 --     4 C    0.989    32 H    0.986    34 H    0.985
                            33 H    0.983
     7   7 N    2.977 --     4 C    0.984    35 H    0.941    36 H    0.939
     8   7 N    3.029 --     3 C    1.562     9 C    1.200
     9   6 C    3.964 --    22 C    1.512     8 N    1.200    10 C    0.981
    10   6 C    3.908 --    11 O    1.577    12 N    1.271     9 C    0.981
    11   8 O    1.872 --    10 C    1.577    12 N    0.174
    12   7 N    3.360 --    10 C    1.271    13 C    0.947    37 H    0.896
                            11 O    0.174
    13   6 C    3.944 --    14 C    0.993    38 H    0.969    39 H    0.964
                            12 N    0.947
    14   6 C    3.985 --    21 C    1.421    15 C    1.405    13 C    0.993
                            17 C    0.105
    15   6 C    3.995 --    16 C    1.459    14 C    1.405    40 H    0.974
                            20 C    0.108
    16   6 C    3.995 --    15 C    1.459    17 C    1.398    41 H    0.973
                            21 C    0.107
    17   6 C    3.987 --    20 C    1.410    16 C    1.398    18 C    1.032
                            14 C    0.105
    18   6 C    3.988 --    17 C    1.032    42 H    0.985    44 H    0.982
                            43 H    0.926
    19   9 F    0.101
    20   6 C    3.995 --    21 C    1.445    17 C    1.410    45 H    0.973
                            15 C    0.108
    21   6 C    3.995 --    20 C    1.445    14 C    1.421    46 H    0.971
                            16 C    0.107
    22   6 C    3.917 --     9 C    1.512    24 C    1.096    23 O    1.065
    23   8 O    2.059 --    22 C    1.065    47 H    0.805
    24   6 C    3.917 --    25 O    1.534     2 N    1.135    22 C    1.096
    25   8 O    1.883 --    24 C    1.534     2 N    0.132
    26   1 H    1.022 --     1 C    0.978
    27   1 H    1.019 --     1 C    0.976
    28   1 H    1.010 --     1 C    0.976
    29   1 H    1.004 --     5 C    0.985
    30   1 H    1.005 --     5 C    0.979
    31   1 H    1.000 --     5 C    0.983
    32   1 H    1.004 --     6 C    0.986
    33   1 H    1.015 --     6 C    0.983
    34   1 H    1.007 --     6 C    0.985
    35   1 H    0.957 --     7 N    0.941
    36   1 H    0.954 --     7 N    0.939
    37   1 H    0.948 --    12 N    0.896
    38   1 H    1.007 --    13 C    0.969
    39   1 H    1.015 --    13 C    0.964
    40   1 H    1.001 --    15 C    0.974
    41   1 H    1.003 --    16 C    0.973
    42   1 H    1.006 --    18 C    0.985
    43   1 H    1.038 --    18 C    0.926
    44   1 H    1.006 --    18 C    0.982
    45   1 H    1.003 --    20 C    0.973
    46   1 H    1.011 --    21 C    0.971
    47   1 H    0.849 --    23 O    0.805
 ---------------------------------------------------------------------------

           -------------------------------------------------
          | TOTAL ENERGY              -80.232384177105 Eh   |
          | GRADIENT NORM               0.000543936934 Eh/α |
          | HOMO-LUMO GAP               0.692927704425 eV   |
           -------------------------------------------------

 * finished run on 2023/06/20 at 15:09:48.162
