                         Program Version 5.0.1 -  RELEASE  -
|  1> # ORCA input file
|  2> ! SP r2SCAN-3c CPCM
|  3>
|  4> %maxcore 1875.0
|  5> %pal nprocs 4 end
|  6> %cpcm smd true SMDsolvent "DMSO" end
|  7>
|  8> *xyz 1 1
|  9> C      -5.683311    0.264963   -1.251645
| 10> O      -4.308474    0.492089   -0.911628
| 11> C      -4.060150    0.869871    0.330919
| 12> O      -4.927685    1.040745    1.167942
| 13> C      -2.619295    1.060692    0.625088
| 14> N      -1.735409    0.836250   -0.405552
| 15> C      -0.481657    0.984077   -0.171350
| 16> C       0.532323   -2.078640   -0.685239
| 17> C      -0.529661   -1.989274   -1.707777
| 18> C       0.603926   -3.299663    0.145518
| 19> N       1.422714   -1.159744   -0.482545
| 20> C       1.590277    0.137482   -1.181295
| 21> C       2.033753   -0.076483   -2.628659
| 22> O       0.362286    0.824909   -1.224805
| 23> C       2.661113    0.900126   -0.442508
| 24> N       3.318763    1.920559   -0.869191
| 25> N       4.221655    2.238385    0.108998
| 26> C       4.058650    1.384916    1.065176
| 27> C       4.795125    1.284536    2.342286
| 28> O       3.070034    0.502804    0.780774
| 29> N       0.022155    1.330691    1.044471
| 30> C      -0.769162    1.582778    2.162513
| 31> O      -0.262279    1.882297    3.222457
| 32> C      -2.202655    1.432909    1.879808
| 33> O      -3.023586    1.661601    2.900371
| 34> H      -6.094086   -0.524361   -0.618617
| 35> H      -5.695384   -0.038757   -2.296153
| 36> H      -6.259273    1.182447   -1.110567
| 37> H      -0.094394   -2.240127   -2.677849
| 38> H      -0.955646   -0.988980   -1.781228
| 39> H      -1.315826   -2.712340   -1.498206
| 40> H      -0.302775   -3.372822    0.749949
| 41> H       1.474957   -3.307361    0.796669
| 42> H       0.620237   -4.176495   -0.504114
| 43> H       2.122733   -1.327061    0.233363
| 44> H       2.314445    0.890583   -3.044841
| 45> H       2.889286   -0.746515   -2.654888
| 46> H       1.219225   -0.494875   -3.213149
| 47> H       4.100063    1.351952    3.179163
| 48> H       5.529064    2.084928    2.406110
| 49> H       5.298968    0.319895    2.402150
| 50> H       1.018830    1.374635    1.189338
| 51> H      -3.959874    1.506583    2.628739
| 52> **                         ****END OF INPUT****

CARTESIAN COORDINATES (ANGSTROEM)
---------------------------------
  C     -5.683311    0.264963   -1.251645
  O     -4.308474    0.492089   -0.911628
  C     -4.060150    0.869871    0.330919
  O     -4.927685    1.040745    1.167942
  C     -2.619295    1.060692    0.625088
  N     -1.735409    0.836250   -0.405552
  C     -0.481657    0.984077   -0.171350
  C      0.532323   -2.078640   -0.685239
  C     -0.529661   -1.989274   -1.707777
  C      0.603926   -3.299663    0.145518
  N      1.422714   -1.159744   -0.482545
  C      1.590277    0.137482   -1.181295
  C      2.033753   -0.076483   -2.628659
  O      0.362286    0.824909   -1.224805
  C      2.661113    0.900126   -0.442508
  N      3.318763    1.920559   -0.869191
  N      4.221655    2.238385    0.108998
  C      4.058650    1.384916    1.065176
  C      4.795125    1.284536    2.342286
  O      3.070034    0.502804    0.780774
  N      0.022155    1.330691    1.044471
  C     -0.769162    1.582778    2.162513
  O     -0.262279    1.882297    3.222457
  C     -2.202655    1.432909    1.879808
  O     -3.023586    1.661601    2.900371
  H     -6.094086   -0.524361   -0.618617
  H     -5.695384   -0.038757   -2.296153
  H     -6.259273    1.182447   -1.110567
  H     -0.094394   -2.240127   -2.677849
  H     -0.955646   -0.988980   -1.781228
  H     -1.315826   -2.712340   -1.498206
  H     -0.302775   -3.372822    0.749949
  H      1.474957   -3.307361    0.796669
  H      0.620237   -4.176495   -0.504114
  H      2.122733   -1.327061    0.233363
  H      2.314445    0.890583   -3.044841
  H      2.889286   -0.746515   -2.654888
  H      1.219225   -0.494875   -3.213149
  H      4.100063    1.351952    3.179163
  H      5.529064    2.084928    2.406110
  H      5.298968    0.319895    2.402150
  H      1.018830    1.374635    1.189338
  H     -3.959874    1.506583    2.628739

 Total Charge           Charge          ....    1
 Multiplicity           Mult            ....    1
 Number of Electrons    NEL             ....  184
 Basis Dimension        Dim             ....  620

ORBITAL ENERGIES
----------------

  NO   OCC          E(Eh)            E(eV)
   0   2.0000     -19.087041      -519.3848
   1   2.0000     -19.039910      -518.1023
   2   2.0000     -19.016612      -517.4683
   3   2.0000     -19.004417      -517.1365
   4   2.0000     -18.963286      -516.0173
   5   2.0000     -18.947962      -515.6003
   6   2.0000     -14.273529      -388.4025
   7   2.0000     -14.249693      -387.7539
   8   2.0000     -14.220589      -386.9619
   9   2.0000     -14.210501      -386.6874
  10   2.0000     -14.184626      -385.9833
  11   2.0000     -10.212613      -277.8993
  12   2.0000     -10.198680      -277.5202
  13   2.0000     -10.181635      -277.0564
  14   2.0000     -10.172576      -276.8099
  15   2.0000     -10.167997      -276.6853
  16   2.0000     -10.165197      -276.6091
  17   2.0000     -10.160707      -276.4869
  18   2.0000     -10.135950      -275.8132
  19   2.0000     -10.106667      -275.0164
  20   2.0000     -10.083989      -274.3993
  21   2.0000     -10.055224      -273.6166
  22   2.0000     -10.053447      -273.5682
  23   2.0000     -10.051628      -273.5187
  24   2.0000     -10.050622      -273.4913
  25   2.0000      -1.174298       -31.9543
  26   2.0000      -1.113517       -30.3003
  27   2.0000      -1.096495       -29.8371
  28   2.0000      -1.062627       -28.9155
  29   2.0000      -1.035431       -28.1755
  30   2.0000      -1.005040       -27.3485
  31   2.0000      -1.000710       -27.2307
  32   2.0000      -0.991047       -26.9678
  33   2.0000      -0.971287       -26.4301
  34   2.0000      -0.904643       -24.6166
  35   2.0000      -0.861886       -23.4531
  36   2.0000      -0.811296       -22.0765
  37   2.0000      -0.779336       -21.2068
  38   2.0000      -0.754929       -20.5427
  39   2.0000      -0.723019       -19.6743
  40   2.0000      -0.720933       -19.6176
  41   2.0000      -0.705850       -19.2072
  42   2.0000      -0.689210       -18.7543
  43   2.0000      -0.673363       -18.3232
  44   2.0000      -0.659484       -17.9455
  45   2.0000      -0.629491       -17.1293
  46   2.0000      -0.621395       -16.9090
  47   2.0000      -0.606134       -16.4937
  48   2.0000      -0.581964       -15.8360
  49   2.0000      -0.576330       -15.6827
  50   2.0000      -0.561182       -15.2705
  51   2.0000      -0.549664       -14.9571
  52   2.0000      -0.537537       -14.6271
  53   2.0000      -0.515253       -14.0207
  54   2.0000      -0.505684       -13.7604
  55   2.0000      -0.492165       -13.3925
  56   2.0000      -0.486368       -13.2348
  57   2.0000      -0.475331       -12.9344
  58   2.0000      -0.469693       -12.7810
  59   2.0000      -0.468530       -12.7493
  60   2.0000      -0.461996       -12.5716
  61   2.0000      -0.453915       -12.3516
  62   2.0000      -0.441215       -12.0061
  63   2.0000      -0.424367       -11.5476
  64   2.0000      -0.422274       -11.4907
  65   2.0000      -0.420783       -11.4501
  66   2.0000      -0.406759       -11.0685
  67   2.0000      -0.401150       -10.9158
  68   2.0000      -0.398432       -10.8419
  69   2.0000      -0.395157       -10.7528
  70   2.0000      -0.392352       -10.6764
  71   2.0000      -0.388564       -10.5734
  72   2.0000      -0.388169       -10.5626
  73   2.0000      -0.384317       -10.4578
  74   2.0000      -0.377995       -10.2858
  75   2.0000      -0.375891       -10.2285
  76   2.0000      -0.367437        -9.9985
  77   2.0000      -0.365050        -9.9335
  78   2.0000      -0.358909        -9.7664
  79   2.0000      -0.354310        -9.6413
  80   2.0000      -0.344763        -9.3815
  81   2.0000      -0.334372        -9.0987
  82   2.0000      -0.331868        -9.0306
  83   2.0000      -0.321801        -8.7567
  84   2.0000      -0.299567        -8.1516
  85   2.0000      -0.295919        -8.0524
  86   2.0000      -0.290288        -7.8991
  87   2.0000      -0.279696        -7.6109
  88   2.0000      -0.277496        -7.5510
  89   2.0000      -0.266206        -7.2438
  90   2.0000      -0.258210        -7.0262
  91   2.0000      -0.221654        -6.0315
  92   0.0000      -0.113580        -3.0907
  93   0.0000      -0.104966        -2.8563
  94   0.0000      -0.075567        -2.0563
  95   0.0000      -0.048321        -1.3149
  96   0.0000      -0.028409        -0.7730

MULLIKEN ATOMIC CHARGES
-----------------------
   0 C :   -0.307398
   1 O :   -0.186778
   2 C :    0.236535
   3 O :   -0.481142
   4 C :    0.136406
   5 N :   -0.224767
   6 C :    0.270156
   7 C :    0.365660
   8 C :   -0.534360
   9 C :   -0.525164
  10 N :    0.051475
  11 C :   -0.607220
  12 C :   -0.467411
  13 O :   -0.062915
  14 C :    0.581047
  15 N :   -0.162463
  16 N :   -0.277278
  17 C :    0.393806
  18 C :   -0.626296
  19 O :   -0.136320
  20 N :    0.018446
  21 C :    0.069153
  22 O :   -0.389358
  23 C :    0.083327
  24 O :   -0.355552
  25 H :    0.181690
  26 H :    0.181945
  27 H :    0.181762
  28 H :    0.244928
  29 H :    0.238224
  30 H :    0.208877
  31 H :    0.225306
  32 H :    0.195502
  33 H :    0.217949
  34 H :    0.344140
  35 H :    0.209027
  36 H :    0.218732
  37 H :    0.209729
  38 H :    0.204913
  39 H :    0.209501
  40 H :    0.205746
  41 H :    0.281854
  42 H :    0.378586
Sum of atomic charges:    1.0000000

LOEWDIN ATOMIC CHARGES
----------------------
   0 C :   -0.028893
   1 O :   -0.553411
   2 C :    0.409526
   3 O :   -0.457553
   4 C :    0.207130
   5 N :   -0.496940
   6 C :    0.479871
   7 C :    0.297345
   8 C :   -0.332948
   9 C :   -0.316909
  10 N :   -0.480550
  11 C :    0.343158
  12 C :   -0.279867
  13 O :   -0.481983
  14 C :    0.386873
  15 N :   -0.326308
  16 N :   -0.340189
  17 C :    0.386778
  18 C :   -0.312164
  19 O :   -0.421723
  20 N :   -0.399237
  21 C :    0.383788
  22 O :   -0.412726
  23 C :    0.283999
  24 O :   -0.433653
  25 H :    0.185825
  26 H :    0.189454
  27 H :    0.185698
  28 H :    0.217244
  29 H :    0.216764
  30 H :    0.193555
  31 H :    0.208941
  32 H :    0.187111
  33 H :    0.206278
  34 H :    0.319768
  35 H :    0.195521
  36 H :    0.194641
  37 H :    0.190046
  38 H :    0.194662
  39 H :    0.194554
  40 H :    0.194895
  41 H :    0.304283
  42 H :    0.317341

  Mayer bond orders larger than 0.100000
B(  0-C ,  1-O ) :   0.8210 B(  0-C , 25-H ) :   0.9531 B(  0-C , 26-H ) :   0.9600
B(  0-C , 27-H ) :   0.9528 B(  1-O ,  2-C ) :   1.2085 B(  2-C ,  3-O ) :   1.7191
B(  2-C ,  4-C ) :   1.0670 B(  4-C ,  5-N ) :   0.9546 B(  4-C , 23-C ) :   1.3785
B(  5-N ,  6-C ) :   1.6878 B(  6-C , 13-O ) :   1.1384 B(  6-C , 20-N ) :   1.0770
B(  7-C ,  8-C ) :   0.9400 B(  7-C ,  9-C ) :   0.9141 B(  7-C , 10-N ) :   1.5108
B(  8-C , 28-H ) :   0.9040 B(  8-C , 29-H ) :   0.9310 B(  8-C , 30-H ) :   0.9299
B(  9-C , 31-H ) :   0.9088 B(  9-C , 32-H ) :   0.9875 B(  9-C , 33-H ) :   0.9121
B( 10-N , 11-C ) :   0.8280 B( 10-N , 34-H ) :   0.8786 B( 11-C , 12-C ) :   1.0706
B( 11-C , 13-O ) :   0.7373 B( 11-C , 14-C ) :   0.6807 B( 11-C , 20-N ) :   0.1128
B( 12-C , 35-H ) :   0.9313 B( 12-C , 36-H ) :   0.9528 B( 12-C , 37-H ) :   0.9201
B( 14-C , 15-N ) :   1.6906 B( 14-C , 17-C ) :   0.1269 B( 14-C , 19-O ) :   1.0730
B( 15-N , 16-N ) :   1.2127 B( 16-N , 17-C ) :   1.6263 B( 17-C , 18-C ) :   0.8318
B( 17-C , 19-O ) :   1.0346 B( 18-C , 38-H ) :   0.9391 B( 18-C , 39-H ) :   0.9847
B( 18-C , 40-H ) :   0.9398 B( 20-N , 21-C ) :   1.0219 B( 20-N , 41-H ) :   0.9031
B( 21-C , 22-O ) :   2.0375 B( 21-C , 23-C ) :   0.9710 B( 23-C , 24-O ) :   1.1613
B( 24-O , 42-H ) :   0.7640

Dispersion correction           -0.019513650
FINAL SINGLE POINT ENERGY     -1269.071038479910

DIPOLE MOMENT
-------------
                                X             Y             Z
Electronic contribution:     -1.48540      13.37139       7.34959
Nuclear contribution   :      3.76351     -19.71836      -9.54171
                        -----------------------------------------
Total Dipole Moment    :      2.27811      -6.34697      -2.19212
                        -----------------------------------------
Magnitude (a.u.)       :      7.09078
Magnitude (Debye)      :     18.02333

Rotational constants in cm-1:     0.011615     0.004885     0.004069
Rotational constants in MHz :   348.202891   146.443035   121.987077

                             ****ORCA TERMINATED NORMALLY****
TOTAL RUN TIME: 0 days 0 hours 2 minutes 39 seconds 791 msec
