   * xtb version 6.5.1 (579679a) compiled by 'ehlert@majestix' on 2022-07-11
          program call               : /lustre/hpc/kemi/ree/PhD/git/ReactivityQM/dep/xtb-6.5.1/bin/xtb --gfn 1 /lustre/hpc/kemi/ree/PhD/git/ReactivityQM/calculations/R02/reac01prodN11/conf04/R02_reac01prodN11_conf04_gfn1.xyz --opt --vfukui --chrg 1 --uhf 0 --alpb DMSO

   ID    Z sym.   atoms
    1    6 C      1, 3, 5, 7-10, 12, 13, 15, 18, 19, 22, 24
    2    8 O      2, 4, 14, 20, 23, 25
    3    7 N      6, 11, 16, 17, 21
    4    1 H      26-43

      * Solvation model:               ALPB
        Solvent                        DMSO
        Solvent mass                       7.8130E+01 g/mol
          :  Hamiltonian                  GFN1-xTB          :
 * total energy  :   -83.0181916 Eh     change       -0.8591883E-10 Eh
 * total energy  :   -83.0353487 Eh     change       -0.1715712E-01 Eh
 * total energy  :   -83.0438249 Eh     change       -0.8476197E-02 Eh
 * total energy  :   -83.0461452 Eh     change       -0.2320307E-02 Eh
 * total energy  :   -83.0484712 Eh     change       -0.2326021E-02 Eh
 * total energy  :   -83.0502710 Eh     change       -0.1799782E-02 Eh
 * total energy  :   -83.0519007 Eh     change       -0.1629691E-02 Eh
 * total energy  :   -83.0530932 Eh     change       -0.1192468E-02 Eh
 * total energy  :   -83.0534919 Eh     change       -0.3987598E-03 Eh
 * total energy  :   -83.0540050 Eh     change       -0.5130712E-03 Eh
 * total energy  :   -83.1650773 Eh     change       -0.1364552E-04 Eh
 * total energy  :   -83.1650900 Eh     change       -0.1269596E-04 Eh
 * total energy  :   -83.1650992 Eh     change       -0.9175934E-05 Eh
 * total energy  :   -83.1651241 Eh     change       -0.2496757E-04 Eh
 * total energy  :   -83.1651449 Eh     change       -0.2081322E-04 Eh
 * total energy  :   -83.1651590 Eh     change       -0.1409339E-04 Eh
 * total energy  :   -83.1651753 Eh     change       -0.1630566E-04 Eh
 * total energy  :   -83.1651855 Eh     change       -0.1011435E-04 Eh
 * total energy  :   -83.1651895 Eh     change       -0.4059906E-05 Eh
   *** GEOMETRY OPTIMIZATION CONVERGED AFTER 109 ITERATIONS ***

 final structure:
================
43
 xtb: 6.5.1 (579679a)
C           -5.68331079769726        0.26496300279363       -1.25164452508073
O           -4.30847354217550        0.49208899001243       -0.91162773853160
C           -4.06015025015517        0.86987131917307        0.33091851193954
O           -4.92768541734735        1.04074514059794        1.16794164565406
C           -2.61929542873458        1.06069199697637        0.62508842554002
N           -1.73540875294337        0.83624986932208       -0.40555235886543
C           -0.48165699316315        0.98407668642458       -0.17134994851568
C            0.53232259756073       -2.07864014963958       -0.68523877842295
C           -0.52966133960704       -1.98927360554937       -1.70777656745301
C            0.60392630008769       -3.29966300239450        0.14551792198057
N            1.42271407923900       -1.15974365890826       -0.48254497749818
C            1.59027747500414        0.13748169566502       -1.18129521772158
C            2.03375265337485       -0.07648302850020       -2.62865914341569
O            0.36228630822969        0.82490867354834       -1.22480507614007
C            2.66111295659617        0.90012569287897       -0.44250762931957
N            3.31876277355187        1.92055860316150       -0.86919058304605
N            4.22165506821199        2.23838532648931        0.10899812877031
C            4.05864958207741        1.38491595707253        1.06517632151244
C            4.79512505579622        1.28453573614813        2.34228579997919
O            3.07003441469902        0.50280429095500        0.78077401956139
N            0.02215487355471        1.33069133764193        1.04447142516311
C           -0.76916182351718        1.58277777221223        2.16251271049540
O           -0.26227914908430        1.88229724521665        3.22245728213416
C           -2.20265517512371        1.43290944200838        1.87980753828093
O           -3.02358598776497        1.66160080523024        2.90037062549837
H           -6.09408572275539       -0.52436106521625       -0.61861676281425
H           -5.69538376202720       -0.03875652816306       -2.29615270100837
H           -6.25927261817114        1.18244742034151       -1.11056672904269
H           -0.09439397904459       -2.24012651230290       -2.67784919073140
H           -0.95564643940529       -0.98897979243984       -1.78122833391448
H           -1.31582618348682       -2.71234032369449       -1.49820607344520
H           -0.30277500737233       -3.37282181947956        0.74994914081663
H            1.47495682960318       -3.30736129822899        0.79666947987009
H            0.62023683848197       -4.17649515734501       -0.50411381421510
H            2.12273284560987       -1.32706148882947        0.23336266138554
H            2.31444461108547        0.89058277108212       -3.04484061687265
H            2.88928587490138       -0.74651471538478       -2.65488807366891
H            1.21922535363727       -0.49487481867101       -3.21314913522437
H            4.10006274949416        1.35195243483401        3.17916324853081
H            5.52906371428384        2.08492800427024        2.40611023213117
H            5.29896786185823        0.31989510008749        2.40215037764933
H            1.01882989240509        1.37463450493960        1.18933825163073
H           -3.95987433975320        1.50658314568660        2.62873922640442

          :  Hamiltonian                  GFN1-xTB          :
         :: total energy             -83.165189520974 Eh    ::
         :: gradient norm              0.000596807517 Eh/a0 ::
         :: HOMO-LUMO gap              2.145416345706 eV    ::
         :: SCC energy               -83.960988940154 Eh    ::
         :: -> Gsolv                  -0.122807801917 Eh    ::
         :: repulsion energy           0.823201103183 Eh    ::

    * Orbital Energies and Occupations

         #    Occupation            Energy/Eh            Energy/eV
      -------------------------------------------------------------
         1        2.0000           -0.8898482             -24.2140
       ...           ...                  ...                  ...
        55        2.0000           -0.5397341             -14.6869
        56        2.0000           -0.5306545             -14.4398
        57        2.0000           -0.5249470             -14.2845
        58        2.0000           -0.5222533             -14.2112
        59        2.0000           -0.5094735             -13.8635
        60        2.0000           -0.5035103             -13.7012
        61        2.0000           -0.5032210             -13.6933
        62        2.0000           -0.4976283             -13.5412
        63        2.0000           -0.4856514             -13.2152
        64        2.0000           -0.4747113             -12.9176
        65        2.0000           -0.4738579             -12.8943
        66        2.0000           -0.4653857             -12.6638
        67        2.0000           -0.4447716             -12.1029 (HOMO)
        68                         -0.3659290              -9.9574 (LUMO)
        69                         -0.3398886              -9.2488
        70                         -0.3015565              -8.2058
        71                         -0.2947673              -8.0210
        72                         -0.2709110              -7.3719
        73                         -0.2558462              -6.9619
        74                         -0.1748549              -4.7580
        75                         -0.1734679              -4.7203
        76                         -0.1727033              -4.6995
        77                         -0.1520429              -4.1373
        78                         -0.1489101              -4.0520
       ...                                ...                  ...
       136                          0.7184762              19.5507
      -------------------------------------------------------------
                  HL-Gap            0.0788426 Eh            2.1454 eV

Wiberg/Mayer (AO) data.
largest (>0.10) Wiberg bond orders for each atom

     #   Z sym  total        # sym  WBO       # sym  WBO       # sym  WBO
 ---------------------------------------------------------------------------
     1   6 C    3.860 --    27 H    0.986    26 H    0.979    28 H    0.979
                             2 O    0.886
     2   8 O    2.220 --     3 C    1.143     1 C    0.886     4 O    0.132
     3   6 C    3.853 --     4 O    1.610     2 O    1.143     5 C    1.016
     4   8 O    1.951 --     3 C    1.610     2 O    0.132
     5   6 C    3.959 --    24 C    1.494     6 N    1.159     3 C    1.016
     6   7 N    3.019 --     7 C    1.563     5 C    1.159
     7   6 C    3.888 --     6 N    1.563    21 N    1.161    14 O    0.996
     8   6 C    3.853 --    11 N    1.597     9 C    1.067    10 C    1.066
     9   6 C    3.977 --     8 C    1.067    31 H    0.973    30 H    0.949
                            29 H    0.923
    10   6 C    3.979 --     8 C    1.066    33 H    0.975    34 H    0.940
                            32 H    0.934
    11   7 N    3.525 --     8 C    1.597    12 C    0.893    35 H    0.861
    12   6 C    3.853 --    13 C    0.970    15 C    0.967    14 O    0.922
                            11 N    0.893
    13   6 C    3.971 --    37 H    0.981    38 H    0.977    36 H    0.975
                            12 C    0.970
    14   8 O    2.127 --     7 C    0.996    12 C    0.922
    15   6 C    3.888 --    16 N    1.675    20 O    1.052    12 C    0.967
    16   7 N    3.011 --    15 C    1.675    17 N    1.171
    17   7 N    2.984 --    18 C    1.644    16 N    1.171
    18   6 C    3.855 --    17 N    1.644    20 O    1.036    19 C    1.034
    19   6 C    3.983 --    18 C    1.034    40 H    0.981    39 H    0.961
                            41 H    0.960
    20   8 O    2.310 --    15 C    1.052    18 C    1.036
    21   7 N    3.432 --     7 C    1.161    22 C    1.091    42 H    0.873
                            23 O    0.133
    22   6 C    3.902 --    23 O    1.632    21 N    1.091    24 C    1.050
    23   8 O    1.929 --    22 C    1.632    21 N    0.133
    24   6 C    3.925 --     5 C    1.494    25 O    1.138    22 C    1.050
    25   8 O    2.102 --    24 C    1.138    43 H    0.769
    26   1 H    1.005 --     1 C    0.979
    27   1 H    1.009 --     1 C    0.986
    28   1 H    1.005 --     1 C    0.979
    29   1 H    0.991 --     9 C    0.923
    30   1 H    1.007 --     9 C    0.949
    31   1 H    0.992 --     9 C    0.973
    32   1 H    0.988 --    10 C    0.934
    33   1 H    0.988 --    10 C    0.975
    34   1 H    0.987 --    10 C    0.940
    35   1 H    0.918 --    11 N    0.861
    36   1 H    1.000 --    13 C    0.975
    37   1 H    0.994 --    13 C    0.981
    38   1 H    0.997 --    13 C    0.977
    39   1 H    0.995 --    19 C    0.961
    40   1 H    0.996 --    19 C    0.981
    41   1 H    0.995 --    19 C    0.960
    42   1 H    0.925 --    21 N    0.873
    43   1 H    0.845 --    25 O    0.769
 ---------------------------------------------------------------------------

           -------------------------------------------------
          | TOTAL ENERGY              -83.165189520974 Eh   |
          | GRADIENT NORM               0.000596807517 Eh/α |
          | HOMO-LUMO GAP               2.145416345706 eV   |
           -------------------------------------------------

 * finished run on 2023/06/20 at 15:32:58.601
