   * xtb version 6.5.1 (579679a) compiled by 'ehlert@majestix' on 2022-07-11
          program call               : /lustre/hpc/kemi/ree/PhD/git/ReactivityQM/dep/xtb-6.5.1/bin/xtb --gfn 1 /lustre/hpc/kemi/ree/PhD/git/ReactivityQM/calculations/R02/reac01prodE06/conf10/R02_reac01prodE06_conf10_gfn1.xyz --opt --vfukui --chrg -1 --uhf 0 --alpb DMSO

   ID    Z sym.   atoms
    1    6 C      1, 3, 5, 6, 8, 11-15, 17, 19, 22, 23
    2    8 O      2, 4, 7, 9, 18, 24
    3    7 N      10, 16, 20, 21, 25
    4    1 H      26-43

      * Solvation model:               ALPB
        Solvent                        DMSO
        Solvent mass                       7.8130E+01 g/mol
          :  Hamiltonian                  GFN1-xTB          :
 * total energy  :   -83.8617301 Eh     change       -0.2497003E-08 Eh
 * total energy  :   -83.8742571 Eh     change       -0.1252698E-01 Eh
 * total energy  :   -83.8795824 Eh     change       -0.5325298E-02 Eh
 * total energy  :   -83.8806495 Eh     change       -0.1067166E-02 Eh
 * total energy  :   -83.8812684 Eh     change       -0.6188422E-03 Eh
 * total energy  :   -83.8814990 Eh     change       -0.2306364E-03 Eh
 * total energy  :   -83.8816608 Eh     change       -0.1617625E-03 Eh
 * total energy  :   -83.8817759 Eh     change       -0.1151586E-03 Eh
 * total energy  :   -83.8818583 Eh     change       -0.8240087E-04 Eh
 * total energy  :   -83.8819106 Eh     change       -0.5223308E-04 Eh
 * total energy  :   -83.8825620 Eh     change       -0.1681245E-04 Eh
 * total energy  :   -83.8825758 Eh     change       -0.1378183E-04 Eh
 * total energy  :   -83.8825913 Eh     change       -0.1556325E-04 Eh
 * total energy  :   -83.8826021 Eh     change       -0.1080694E-04 Eh
 * total energy  :   -83.8826097 Eh     change       -0.7583762E-05 Eh
 * total energy  :   -83.8826155 Eh     change       -0.5760334E-05 Eh
 * total energy  :   -83.8826203 Eh     change       -0.4854611E-05 Eh
 * total energy  :   -83.8826263 Eh     change       -0.5978633E-05 Eh
 * total energy  :   -83.8826303 Eh     change       -0.4017884E-05 Eh
   *** GEOMETRY OPTIMIZATION CONVERGED AFTER 48 ITERATIONS ***

 final structure:
================
43
 xtb: 6.5.1 (579679a)
C            6.66478321519987        0.41027164794633        0.42034092819486
O            5.33582817523014        0.85671624431902        0.17524978340946
C            4.37112779240958       -0.07621566463426        0.25110151813705
O            4.63365572906209       -1.23352289621425        0.52142666439855
C            2.99492990515991        0.43592529427924       -0.00852014862332
C            2.73355600151227        1.64267960758093       -0.65531123383310
O            3.72989126951943        2.54058866956354       -1.04603197087442
C            1.40930863012885        1.95924936103189       -1.06727290762359
O            1.10876322026439        2.97298237656705       -1.72608214691449
N            0.45071784683500        0.99822713682514       -0.77327485046250
C            0.67743554872418        0.05625791064229        0.31834264081334
C            0.28145896946516        0.73310609609389        1.65367718966766
C           -0.19246711811678       -1.22113020611941        0.03981846271613
C            0.01629797206799       -2.26259147415070        1.14533918765709
C            0.22870113783086       -1.82152765430180       -1.30264363539426
N           -1.61643505521676       -0.86473868459019        0.05985512944375
C           -2.43673809723008       -0.60600295123451       -0.97236297476836
O           -2.16199397831009       -0.62259114269519       -2.16225729092925
C           -3.80342243049935       -0.27887912460870       -0.46963709921548
N           -4.17275110642355       -0.23207438950855        0.77596936866975
N           -5.49480704690482        0.10775100460617        0.78233924550570
C           -5.84510560049505        0.24691102283834       -0.45916707748526
C           -7.18013085395593        0.61068795255320       -0.98417898681749
O           -4.82304152766724        0.01661179522287       -1.29804546623156
N            2.04368834188732       -0.39583789900093        0.40605485632535
H            7.31140891946603        1.28386941855058        0.35565406112991
H            6.74164392328261       -0.03748464202178        1.41539207247770
H            6.96399914003320       -0.33149580155687       -0.32611319685058
H            3.27374940427524        3.24903912017977       -1.52968260932228
H           -0.50108994918884        1.33006916487313       -0.84033931922215
H            0.50785185253677        0.07731568209953        2.49137014225598
H            0.85358784725329        1.65312221665351        1.76864640124151
H           -0.77893182600962        0.97799364973020        1.66071757216949
H           -0.41922943922110       -1.93045391458752        2.08641509982056
H            1.08526269382263       -2.42295962389973        1.28917697852857
H           -0.45338917793523       -3.20487994117399        0.86504435040636
H            1.24274663670853       -2.20966249724193       -1.19792547541272
H            0.22759344113693       -1.06483148250870       -2.08612721603705
H           -0.43555811496181       -2.63481144729431       -1.58936944659893
H           -2.03530958211024       -0.81581874009551        0.97775414382092
H           -7.51806733045604       -0.14037487356010       -1.69759843842294
H           -7.13098952468899        1.56929401060922       -1.50118525860547
H           -7.88852885442239        0.67921266823575       -0.16241104714469

          :  Hamiltonian                  GFN1-xTB          :
         :: total energy             -83.882630330293 Eh    ::
         :: gradient norm              0.000878148574 Eh/a0 ::
         :: HOMO-LUMO gap              0.643163401590 eV    ::
         :: SCC energy               -84.639359355910 Eh    ::
         :: -> Gsolv                  -0.114223301750 Eh    ::
         :: repulsion energy           0.784394277188 Eh    ::

    * Orbital Energies and Occupations

         #    Occupation            Energy/Eh            Energy/eV
      -------------------------------------------------------------
         1        2.0000           -0.8547819             -23.2598
       ...           ...                  ...                  ...
        56        2.0000           -0.4735815             -12.8868
        57        2.0000           -0.4713248             -12.8254
        58        2.0000           -0.4692680             -12.7694
        59        2.0000           -0.4521990             -12.3050
        60        2.0000           -0.4493806             -12.2283
        61        2.0000           -0.4441675             -12.0864
        62        2.0000           -0.4390288             -11.9466
        63        2.0000           -0.4339123             -11.8074
        64        2.0000           -0.4233874             -11.5210
        65        2.0000           -0.4059093             -11.0454
        66        2.0000           -0.3926517             -10.6846
        67        2.0000           -0.3797104             -10.3324
        68        2.0000           -0.3208430              -8.7306 (HOMO)
        69        0.0000           -0.2972072              -8.0874 (LUMO)
        70                         -0.2667808              -7.2595
        71                         -0.2493886              -6.7862
        72                         -0.1919973              -5.2245
        73                         -0.1860716              -5.0633
        74                         -0.1388465              -3.7782
        75                         -0.1272262              -3.4620
        76                         -0.1201593              -3.2697
        77                         -0.1110338              -3.0214
        78                         -0.1065823              -2.9003
        79                         -0.0940937              -2.5604
       ...                                ...                  ...
       136                          0.7409489              20.1622
      -------------------------------------------------------------
                  HL-Gap            0.0236358 Eh            0.6432 eV

Wiberg/Mayer (AO) data.
largest (>0.10) Wiberg bond orders for each atom

     #   Z sym  total        # sym  WBO       # sym  WBO       # sym  WBO
 ---------------------------------------------------------------------------
     1   6 C    3.892 --    26 H    0.987    28 H    0.980    27 H    0.980
                             2 O    0.916
     2   8 O    2.187 --     3 C    1.085     1 C    0.916     4 O    0.123
     3   6 C    3.821 --     4 O    1.638     2 O    1.085     5 C    1.003
     4   8 O    1.891 --     3 C    1.638     2 O    0.123
     5   6 C    3.971 --    25 N    1.408     6 C    1.342     3 C    1.003
     6   6 C    3.862 --     5 C    1.342     8 C    1.192     7 O    0.977
                            25 N    0.173
     7   8 O    1.948 --     6 C    0.977    29 H    0.848
     8   6 C    3.917 --     9 O    1.470     6 C    1.192    10 N    1.101
     9   8 O    1.800 --     8 C    1.470    10 N    0.104
    10   7 N    3.220 --     8 C    1.101    11 C    0.940    30 H    0.918
                             9 O    0.104
    11   6 C    3.945 --    25 N    1.009    12 C    0.971    10 N    0.940
                            13 C    0.932
    12   6 C    3.995 --    32 H    0.984    33 H    0.984    31 H    0.983
                            11 C    0.971
    13   6 C    3.918 --    15 C    1.002    14 C    0.999    11 C    0.932
                            16 N    0.913
    14   6 C    3.995 --    13 C    0.999    36 H    0.986    34 H    0.982
                            35 H    0.980
    15   6 C    3.994 --    13 C    1.002    39 H    0.987    37 H    0.983
                            38 H    0.979
    16   7 N    3.369 --    17 C    1.275    13 C    0.913    40 H    0.902
                            18 O    0.185
    17   6 C    3.921 --    18 O    1.572    16 N    1.275    19 C    0.981
    18   8 O    1.891 --    17 C    1.572    16 N    0.185
    19   6 C    3.866 --    20 N    1.612    24 O    1.062    17 C    0.981
    20   7 N    3.010 --    19 C    1.612    21 N    1.191
    21   7 N    2.980 --    22 C    1.614    20 N    1.191
    22   6 C    3.872 --    21 N    1.614    24 O    1.080    23 C    1.030
    23   6 C    3.988 --    22 C    1.030    43 H    0.983    41 H    0.966
                            42 H    0.963
    24   8 O    2.324 --    22 C    1.080    19 C    1.062
    25   7 N    2.917 --     5 C    1.408    11 C    1.009     6 C    0.173
    26   1 H    1.014 --     1 C    0.987
    27   1 H    1.013 --     1 C    0.980
    28   1 H    1.012 --     1 C    0.980
    29   1 H    0.890 --     7 O    0.848
    30   1 H    0.963 --    10 N    0.918
    31   1 H    1.011 --    12 C    0.983
    32   1 H    1.007 --    12 C    0.984
    33   1 H    1.005 --    12 C    0.984
    34   1 H    1.003 --    14 C    0.982
    35   1 H    1.024 --    14 C    0.980
    36   1 H    1.004 --    14 C    0.986
    37   1 H    1.018 --    15 C    0.983
    38   1 H    1.027 --    15 C    0.979
    39   1 H    1.008 --    15 C    0.987
    40   1 H    0.966 --    16 N    0.902
    41   1 H    0.998 --    23 C    0.966
    42   1 H    0.997 --    23 C    0.963
    43   1 H    0.999 --    23 C    0.983
 ---------------------------------------------------------------------------

           -------------------------------------------------
          | TOTAL ENERGY              -83.882630330293 Eh   |
          | GRADIENT NORM               0.000878148574 Eh/α |
          | HOMO-LUMO GAP               0.643163401590 eV   |
           -------------------------------------------------

 * finished run on 2023/06/20 at 15:00:34.593
