   * xtb version 6.5.1 (579679a) compiled by 'ehlert@majestix' on 2022-07-11
          program call               : /lustre/hpc/kemi/ree/PhD/git/ReactivityQM/dep/xtb-6.5.1/bin/xtb --gfn 1 /lustre/hpc/kemi/ree/PhD/git/ReactivityQM/calculations/R02oxygendeprot/reac01prodE05/conf10/R02oxygendeprot_reac01prodE05_conf10_gfn1.xyz --opt --vfukui --chrg -2 --uhf 0 --alpb DMSO

   ID    Z sym.   atoms
    1    6 C      1, 3, 5, 6, 8, 11-14, 16, 18, 21, 22, 25
    2    8 O      2, 4, 7, 9, 17, 23
    3    7 N      10, 15, 19, 20, 24
    4    1 H      26-42

      * Solvation model:               ALPB
        Solvent                        DMSO
        Solvent mass                       7.8130E+01 g/mol
          :  Hamiltonian                  GFN1-xTB          :
 * total energy  :   -83.5583019 Eh     change       -0.4206413E-11 Eh
 * total energy  :   -83.5700292 Eh     change       -0.1172730E-01 Eh
 * total energy  :   -83.5746025 Eh     change       -0.4573322E-02 Eh
 * total energy  :   -83.5757937 Eh     change       -0.1191221E-02 Eh
 * total energy  :   -83.5769917 Eh     change       -0.1197951E-02 Eh
 * total energy  :   -83.5775285 Eh     change       -0.5367970E-03 Eh
 * total energy  :   -83.5778611 Eh     change       -0.3326486E-03 Eh
 * total energy  :   -83.5780618 Eh     change       -0.2007265E-03 Eh
 * total energy  :   -83.5782017 Eh     change       -0.1398584E-03 Eh
 * total energy  :   -83.5783121 Eh     change       -0.1104427E-03 Eh
 * total energy  :   -83.5855596 Eh     change       -0.2824690E-04 Eh
 * total energy  :   -83.5855794 Eh     change       -0.1986533E-04 Eh
 * total energy  :   -83.5856100 Eh     change       -0.3053391E-04 Eh
 * total energy  :   -83.5856305 Eh     change       -0.2053758E-04 Eh
 * total energy  :   -83.5856458 Eh     change       -0.1532063E-04 Eh
 * total energy  :   -83.5856622 Eh     change       -0.1632171E-04 Eh
 * total energy  :   -83.5856696 Eh     change       -0.7482942E-05 Eh
 * total energy  :   -83.5856749 Eh     change       -0.5238500E-05 Eh
 * total energy  :   -83.5856795 Eh     change       -0.4625515E-05 Eh
   *** GEOMETRY OPTIMIZATION CONVERGED AFTER 92 ITERATIONS ***

 final structure:
================
42
 xtb: 6.5.1 (579679a)
C           -5.45268211212469        1.85725033955882        0.97508895828155
O           -4.74288167547597        0.85704656078772        0.27374679264042
C           -3.38579023078375        1.08862426981653        0.12207964455471
O           -2.90177745416153        2.12578118355570        0.60018760617347
C           -2.67665516702388        0.08578495288181       -0.59511486272426
C           -3.21301251335062       -1.11929759706507       -1.09498577294299
O           -4.40071447895583       -1.51204264528298       -0.98448441718876
C           -2.20637747844021       -2.04131861999986       -1.76681460381143
O           -2.52197980583261       -2.92368760242996       -2.59319145760305
N           -0.92693455719343       -1.90620766608038       -1.35905769946204
C           -0.37143930447452       -0.73898321802729       -0.73763947634233
C            0.20946878166805       -0.97020777815529        0.66514839413453
C           -0.63084202495457       -0.36596735769739        1.80582479397683
C            0.46291496477973       -2.46037408976600        0.93403171884021
N            1.53061420246626       -0.26866741739149        0.64001047969569
C            2.46536870619566       -0.33016374738530        1.60983252007756
O            2.27896584238880       -0.74223729759815        2.76255506606496
C            3.77985702100901        0.18538864507341        1.19471467346285
N            4.84798465293409        0.33542604712284        1.94301418670041
N            5.82701855247079        0.84210234770180        1.13356644758000
C            5.31149074794842        0.97207381247630       -0.04641360309235
C            5.97840989931641        1.47284943714247       -1.27076936461090
O            4.02171880411941        0.58191818342406       -0.08846786658130
N           -1.26785333777599        0.39673945443139       -0.80866928190570
C           -1.07173916922139        1.14122340746122       -2.06518617200156
H           -5.06067815530376        1.98723140532072        1.99115515628281
H           -5.39591444697985        2.82252668939457        0.45771569572533
H           -6.49479087606577        1.53997195797142        1.02964430279080
H           -0.27017132612425       -2.53752248194883       -1.79116018131529
H           -0.13885793351764       -0.50494237695370        2.76842346399052
H           -0.77897826333547        0.70123692593731        1.63322563615345
H           -1.60421400790607       -0.85717036176694        1.83686010470842
H           -0.47798388667035       -3.00927166672398        0.88579901058124
H            1.14537318067088       -2.86898563855966        0.19001648536607
H            0.89924548157765       -2.60683967884225        1.92200349523202
H            1.84468188082461       -0.03288088378997       -0.29096417763183
H            5.97996753280977        0.70071665420018       -2.04006679980514
H            7.00303862669671        1.75144073471398       -1.03808905861747
H            5.44689322541345        2.33945024779911       -1.66383607101500
H           -1.61880545109782        2.08612204606179       -2.01767579591800
H           -0.00705217115708        1.34997108595133       -2.17775767036062
H           -1.41488327535191        0.57589273670229       -2.94430030010359

          :  Hamiltonian                  GFN1-xTB          :
         :: total energy             -83.585679501946 Eh    ::
         :: gradient norm              0.000714684447 Eh/a0 ::
         :: HOMO-LUMO gap              0.131820599939 eV    ::
         :: SCC energy               -84.305773797061 Eh    ::
         :: -> Gsolv                  -0.274432368348 Eh    ::
         :: repulsion energy           0.747172856956 Eh    ::

    * Orbital Energies and Occupations

         #    Occupation            Energy/Eh            Energy/eV
      -------------------------------------------------------------
         1        2.0000           -0.8309608             -22.6116
       ...           ...                  ...                  ...
        56        2.0000           -0.4376717             -11.9097
        57        2.0000           -0.4344277             -11.8214
        58        2.0000           -0.4278609             -11.6427
        59        2.0000           -0.4261951             -11.5974
        60        2.0000           -0.4146790             -11.2840
        61        2.0000           -0.4130797             -11.2405
        62        2.0000           -0.4032133             -10.9720
        63        2.0000           -0.4000538             -10.8860
        64        2.0000           -0.3859858             -10.5032
        65        2.0000           -0.3558747              -9.6838
        66        2.0000           -0.3388715              -9.2212
        67        2.0000           -0.3192315              -8.6867
        68        1.8551           -0.2816207              -7.6633 (HOMO)
        69        0.1449           -0.2767764              -7.5315 (LUMO)
        70                         -0.2304191              -6.2700
        71                         -0.2266384              -6.1671
        72                         -0.1619470              -4.4068
        73                         -0.1603983              -4.3647
        74                         -0.1312294              -3.5709
        75                         -0.1093668              -2.9760
        76                         -0.1005127              -2.7351
        77                         -0.0907894              -2.4705
        78                         -0.0792217              -2.1557
        79                         -0.0772741              -2.1027
       ...                                ...                  ...
       134                          0.7476208              20.3438
      -------------------------------------------------------------
                  HL-Gap            0.0048443 Eh            0.1318 eV

Wiberg/Mayer (AO) data.
largest (>0.10) Wiberg bond orders for each atom

     #   Z sym  total        # sym  WBO       # sym  WBO       # sym  WBO
 ---------------------------------------------------------------------------
     1   6 C    3.916 --    28 H    0.987    27 H    0.980    26 H    0.980
                             2 O    0.946
     2   8 O    2.112 --     3 C    0.982     1 C    0.946
     3   6 C    3.851 --     4 O    1.497     5 C    1.241     2 O    0.982
     4   8 O    1.808 --     3 C    1.497
     5   6 C    3.888 --     6 C    1.318     3 C    1.241    24 N    0.966
                             7 O    0.129
     6   6 C    3.935 --     7 O    1.478     5 C    1.318     8 C    0.952
     7   8 O    1.779 --     6 C    1.478     5 C    0.129
     8   6 C    3.876 --     9 O    1.479    10 N    1.262     6 C    0.952
     9   8 O    1.749 --     8 C    1.479    10 N    0.151
    10   7 N    3.379 --     8 C    1.262    11 C    0.960    29 H    0.915
                             9 O    0.151
    11   6 C    3.308 --    24 N    0.974    12 C    0.971    10 N    0.960
    12   6 C    3.902 --    14 C    0.993    13 C    0.988    11 C    0.971
                            15 N    0.880
    13   6 C    3.990 --    12 C    0.988    32 H    0.986    30 H    0.984
                            31 H    0.983
    14   6 C    3.993 --    12 C    0.993    34 H    0.986    33 H    0.985
                            35 H    0.984
    15   7 N    3.315 --    16 C    1.261    36 H    0.907    12 C    0.880
                            17 O    0.164
    16   6 C    3.881 --    17 O    1.496    15 N    1.261    18 C    1.031
    17   8 O    1.799 --    16 C    1.496    15 N    0.164
    18   6 C    3.793 --    19 N    1.539    16 C    1.031    23 O    1.015
    19   7 N    2.878 --    18 C    1.539    20 N    1.186
    20   7 N    2.979 --    21 C    1.625    19 N    1.186
    21   6 C    3.847 --    20 N    1.625    23 O    1.061    22 C    1.027
    22   6 C    3.991 --    21 C    1.027    38 H    0.984    39 H    0.968
                            37 H    0.967
    23   8 O    2.264 --    21 C    1.061    18 C    1.015
    24   7 N    3.053 --    11 C    0.974    25 C    0.970     5 C    0.966
    25   6 C    3.981 --    41 H    0.988    40 H    0.988    42 H    0.982
                            24 N    0.970
    26   1 H    1.020 --     1 C    0.980
    27   1 H    1.020 --     1 C    0.980
    28   1 H    1.019 --     1 C    0.987
    29   1 H    0.979 --    10 N    0.915
    30   1 H    1.019 --    13 C    0.984
    31   1 H    1.030 --    13 C    0.983
    32   1 H    1.015 --    13 C    0.986
    33   1 H    1.014 --    14 C    0.985
    34   1 H    1.008 --    14 C    0.986
    35   1 H    1.015 --    14 C    0.984
    36   1 H    0.988 --    15 N    0.907
    37   1 H    0.999 --    22 C    0.967
    38   1 H    1.002 --    22 C    0.984
    39   1 H    0.999 --    22 C    0.968
    40   1 H    1.024 --    25 C    0.988
    41   1 H    1.036 --    25 C    0.988
    42   1 H    1.012 --    25 C    0.982
 ---------------------------------------------------------------------------

           -------------------------------------------------
          | TOTAL ENERGY              -83.585679501946 Eh   |
          | GRADIENT NORM               0.000714684447 Eh/α |
          | HOMO-LUMO GAP               0.131820599939 eV   |
           -------------------------------------------------

 * finished run on 2023/06/21 at 17:06:20.313
