   * xtb version 6.5.1 (579679a) compiled by 'ehlert@majestix' on 2022-07-11
          program call               : /lustre/hpc/kemi/ree/PhD/git/ReactivityQM/dep/xtb-6.5.1/bin/xtb --gfn 1 /lustre/hpc/kemi/ree/PhD/git/ReactivityQM/calculations/R01/reac01prodE01/conf12/R01_reac01prodE01_conf12_gfn1.xyz --opt --vfukui --chrg -1 --uhf 0 --alpb DMSO

   ID    Z sym.   atoms
    1    6 C      1, 3, 4, 6, 9, 10
    2    8 O      2, 5, 11
    3    7 N      7, 8
    4    1 H      12-20

      * Solvation model:               ALPB
        Solvent                        DMSO
        Solvent mass                       7.8130E+01 g/mol
          :  Hamiltonian                  GFN1-xTB          :
 * total energy  :   -38.3270101 Eh     change       -0.3716139E-11 Eh
 * total energy  :   -38.3360761 Eh     change       -0.9065951E-02 Eh
 * total energy  :   -38.3398829 Eh     change       -0.3806858E-02 Eh
 * total energy  :   -38.3405940 Eh     change       -0.7110372E-03 Eh
 * total energy  :   -38.3409293 Eh     change       -0.3353328E-03 Eh
 * total energy  :   -38.3411051 Eh     change       -0.1757744E-03 Eh
 * total energy  :   -38.3412431 Eh     change       -0.1380494E-03 Eh
 * total energy  :   -38.3413289 Eh     change       -0.8573557E-04 Eh
 * total energy  :   -38.3414009 Eh     change       -0.7202805E-04 Eh
 * total energy  :   -38.3414741 Eh     change       -0.7322155E-04 Eh
 * total energy  :   -38.3444765 Eh     change       -0.4028927E-04 Eh
 * total energy  :   -38.3444887 Eh     change       -0.1224138E-04 Eh
 * total energy  :   -38.3444997 Eh     change       -0.1099381E-04 Eh
 * total energy  :   -38.3445065 Eh     change       -0.6745552E-05 Eh
 * total energy  :   -38.3445119 Eh     change       -0.5382301E-05 Eh
 * total energy  :   -38.3445188 Eh     change       -0.6990902E-05 Eh
 * total energy  :   -38.3445253 Eh     change       -0.6481733E-05 Eh
 * total energy  :   -38.3445303 Eh     change       -0.5016373E-05 Eh
 * total energy  :   -38.3445347 Eh     change       -0.4321839E-05 Eh
   *** GEOMETRY OPTIMIZATION CONVERGED AFTER 101 ITERATIONS ***

 final structure:
================
20
 xtb: 6.5.1 (579679a)
C           -2.54148406349682        1.58761310663841       -0.91290966105997
O           -2.13195897800660        0.24216615794965       -0.91046463027221
C           -1.33003316546225       -0.14848129111214        0.31246750408810
C           -1.39868280836961       -1.70503970986633        0.27042020196748
O           -1.70295620656434        0.41038883811299        1.40817647462641
C            0.14001502677109        0.26078736312167       -0.09980693021596
N            0.56779486690376        1.44328704757927       -0.41332246739012
N            1.93252796136122        1.34278821339890       -0.61070897899881
C            2.23692137442791        0.10805749858010       -0.39613658128490
C            3.57799746584455       -0.52139681725783       -0.46933349483920
O            1.15849605003916       -0.63237482664847       -0.06844010095028
H           -1.69959125827193        2.27333463122229       -1.11134866757240
H           -3.28484627941932        1.71227645816145       -1.70653563496383
H           -3.00104044026261        1.87464242130087        0.04622658966291
H           -0.74502262442327       -2.10961910439669        1.04019272071430
H           -2.42398751484201       -2.00699304469839        0.47560344506006
H           -1.09530563242164       -2.08249468271240       -0.70404651572142
H            3.57381879833972       -1.33469856066365       -1.19443713767654
H            4.31438034342179        0.22185716936591       -0.76499879734868
H            3.85295708443078       -0.93610186807576        0.50036566217471

          :  Hamiltonian                  GFN1-xTB          :
         :: total energy             -38.344534663528 Eh    ::
         :: gradient norm              0.000688891377 Eh/a0 ::
         :: HOMO-LUMO gap              3.293045305581 eV    ::
         :: SCC energy               -38.654016033525 Eh    ::
         :: -> Gsolv                  -0.104309583351 Eh    ::
         :: repulsion energy           0.318004753432 Eh    ::

    * Orbital Energies and Occupations

         #    Occupation            Energy/Eh            Energy/eV
      -------------------------------------------------------------
         1        2.0000           -0.8218990             -22.3650
       ...           ...                  ...                  ...
        19        2.0000           -0.5107570             -13.8984
        20        2.0000           -0.5003259             -13.6146
        21        2.0000           -0.4793350             -13.0434
        22        2.0000           -0.4714925             -12.8300
        23        2.0000           -0.4630704             -12.6008
        24        2.0000           -0.4622981             -12.5798
        25        2.0000           -0.4466546             -12.1541
        26        2.0000           -0.4399674             -11.9721
        27        2.0000           -0.4172097             -11.3529
        28        2.0000           -0.4141277             -11.2690
        29        2.0000           -0.4047150             -11.0129
        30        2.0000           -0.3681423             -10.0177
        31        2.0000           -0.3498161              -9.5190 (HOMO)
        32                         -0.2287989              -6.2259 (LUMO)
        33                         -0.2130650              -5.7978
        34                         -0.1305919              -3.5536
        35                         -0.1002960              -2.7292
        36                         -0.0829996              -2.2585
        37                         -0.0633780              -1.7246
        38                         -0.0625476              -1.7020
        39                         -0.0374844              -1.0200
        40                         -0.0301314              -0.8199
        41                         -0.0287795              -0.7831
        42                         -0.0262520              -0.7144
       ...                                ...                  ...
        62                          0.6116048              16.6426
      -------------------------------------------------------------
                  HL-Gap            0.1210172 Eh            3.2930 eV

Wiberg/Mayer (AO) data.
largest (>0.10) Wiberg bond orders for each atom

     #   Z sym  total        # sym  WBO       # sym  WBO       # sym  WBO
 ---------------------------------------------------------------------------
     1   6 C    3.933 --    13 H    0.985    12 H    0.978    14 H    0.976
                             2 O    0.972
     2   8 O    1.944 --     1 C    0.972     3 C    0.785
     3   6 C    3.899 --     5 O    1.257     4 C    0.943     6 C    0.865
                             2 O    0.785
     4   6 C    3.994 --    17 H    0.990    15 H    0.987    16 H    0.987
                             3 C    0.943
     5   8 O    1.550 --     3 C    1.257
     6   6 C    3.803 --     7 N    1.660    11 O    1.045     3 C    0.865
     7   7 N    2.981 --     6 C    1.660     8 N    1.147
     8   7 N    2.976 --     9 C    1.657     7 N    1.147
     9   6 C    3.887 --     8 N    1.657    11 O    1.060    10 C    1.024
    10   6 C    3.993 --     9 C    1.024    19 H    0.985    18 H    0.970
                            20 H    0.969
    11   8 O    2.291 --     9 C    1.060     6 C    1.045
    12   1 H    1.033 --     1 C    0.978
    13   1 H    1.023 --     1 C    0.985
    14   1 H    1.033 --     1 C    0.976
    15   1 H    1.016 --     4 C    0.987
    16   1 H    1.017 --     4 C    0.987
    17   1 H    1.013 --     4 C    0.990
    18   1 H    1.002 --    10 C    0.970
    19   1 H    1.002 --    10 C    0.985
    20   1 H    1.002 --    10 C    0.969
 ---------------------------------------------------------------------------

           -------------------------------------------------
          | TOTAL ENERGY              -38.344534663528 Eh   |
          | GRADIENT NORM               0.000688891377 Eh/α |
          | HOMO-LUMO GAP               3.293045305581 eV   |
           -------------------------------------------------

 * finished run on 2023/06/20 at 14:52:34.432
