                         Program Version 5.0.1 -  RELEASE  -
|  1> # ORCA input file
|  2> ! SP r2SCAN-3c CPCM
|  3>
|  4> %maxcore 1875.0
|  5> %pal nprocs 4 end
|  6> %cpcm smd true SMDsolvent "DMSO" end
|  7>
|  8> *xyz -2 1
|  9> C      -5.875467    1.822975    0.475229
| 10> O      -4.569240    1.290840    0.321791
| 11> C      -4.480299   -0.063499    0.276365
| 12> O      -5.499984   -0.747637    0.367108
| 13> C      -3.114789   -0.568486    0.119407
| 14> C      -2.863354   -1.935411    0.155074
| 15> O      -3.861153   -2.886047    0.258876
| 16> C      -1.460856   -2.418215    0.243761
| 17> O      -1.218536   -3.629920    0.511848
| 18> N      -0.497596   -1.518276    0.080356
| 19> C      -0.824187   -0.164325   -0.311445
| 20> C      -0.587840   -0.046344   -1.849072
| 21> C       0.204807    0.765786    0.447324
| 22> C      -0.120078    0.695616    1.947380
| 23> C       0.119451    2.213278   -0.036646
| 24> N       1.520177    0.175999    0.228360
| 25> C       2.719252    0.782532    0.251732
| 26> O       2.917690    1.993624    0.419811
| 27> C       3.811526   -0.179121    0.029995
| 28> N       3.691962   -1.469690   -0.176265
| 29> N       4.960940   -1.969037   -0.291541
| 30> C       5.770035   -0.969995   -0.149237
| 31> C       7.251345   -0.998939   -0.182472
| 32> O       5.122034    0.192727    0.057631
| 33> N      -2.143723    0.357047   -0.021154
| 34> H      -6.336127    1.463082    1.400695
| 35> H      -5.779209    2.907559    0.510433
| 36> H      -6.512381    1.536454   -0.367560
| 37> H      -4.728822   -2.441592    0.293331
| 38> H       0.465410   -0.198036   -2.086301
| 39> H      -0.906875    0.929709   -2.211516
| 40> H      -1.175809   -0.812122   -2.354847
| 41> H      -1.129614    1.075511    2.109565
| 42> H      -0.073778   -0.340005    2.288171
| 43> H       0.583885    1.292543    2.526732
| 44> H       0.585714    2.333646   -1.013538
| 45> H       0.606467    2.894113    0.661004
| 46> H      -0.934809    2.486657   -0.110923
| 47> H       1.491062   -0.845519    0.171877
| 48> H       7.655282   -0.729174    0.793293
| 49> H       7.591096   -1.996870   -0.447106
| 50> H       7.626389   -0.281438   -0.911232
| 51> **                         ****END OF INPUT****

CARTESIAN COORDINATES (ANGSTROEM)
---------------------------------
  C     -5.875467    1.822975    0.475229
  O     -4.569240    1.290840    0.321791
  C     -4.480299   -0.063499    0.276365
  O     -5.499984   -0.747637    0.367108
  C     -3.114789   -0.568486    0.119407
  C     -2.863354   -1.935411    0.155074
  O     -3.861153   -2.886047    0.258876
  C     -1.460856   -2.418215    0.243761
  O     -1.218536   -3.629920    0.511848
  N     -0.497596   -1.518276    0.080356
  C     -0.824187   -0.164325   -0.311445
  C     -0.587840   -0.046344   -1.849072
  C      0.204807    0.765786    0.447324
  C     -0.120078    0.695616    1.947380
  C      0.119451    2.213278   -0.036646
  N      1.520177    0.175999    0.228360
  C      2.719252    0.782532    0.251732
  O      2.917690    1.993624    0.419811
  C      3.811526   -0.179121    0.029995
  N      3.691962   -1.469690   -0.176265
  N      4.960940   -1.969037   -0.291541
  C      5.770035   -0.969995   -0.149237
  C      7.251345   -0.998939   -0.182472
  O      5.122034    0.192727    0.057631
  N     -2.143723    0.357047   -0.021154
  H     -6.336127    1.463082    1.400695
  H     -5.779209    2.907559    0.510433
  H     -6.512381    1.536454   -0.367560
  H     -4.728822   -2.441592    0.293331
  H      0.465410   -0.198036   -2.086301
  H     -0.906875    0.929709   -2.211516
  H     -1.175809   -0.812122   -2.354847
  H     -1.129614    1.075511    2.109565
  H     -0.073778   -0.340005    2.288171
  H      0.583885    1.292543    2.526732
  H      0.585714    2.333646   -1.013538
  H      0.606467    2.894113    0.661004
  H     -0.934809    2.486657   -0.110923
  H      1.491062   -0.845519    0.171877
  H      7.655282   -0.729174    0.793293
  H      7.591096   -1.996870   -0.447106
  H      7.626389   -0.281438   -0.911232

 Total Charge           Charge          ....   -2
 Multiplicity           Mult            ....    1
 Number of Electrons    NEL             ....  186
 Basis Dimension        Dim             ....  615

ORBITAL ENERGIES
----------------

  NO   OCC          E(Eh)            E(eV)
   0   2.0000     -19.049171      -518.3543
   1   2.0000     -18.975415      -516.3473
   2   2.0000     -18.926351      -515.0122
   3   2.0000     -18.921019      -514.8671
   4   2.0000     -18.904400      -514.4149
   5   2.0000     -18.834866      -512.5228
   6   2.0000     -14.190821      -386.1519
   7   2.0000     -14.186401      -386.0316
   8   2.0000     -14.164891      -385.4463
   9   2.0000     -14.059601      -382.5812
  10   2.0000     -14.057567      -382.5259
  11   2.0000     -10.133688      -275.7517
  12   2.0000     -10.132395      -275.7165
  13   2.0000     -10.128052      -275.5983
  14   2.0000     -10.127587      -275.5857
  15   2.0000     -10.062949      -273.8268
  16   2.0000     -10.049910      -273.4719
  17   2.0000     -10.046357      -273.3753
  18   2.0000     -10.044168      -273.3157
  19   2.0000     -10.039053      -273.1765
  20   2.0000     -10.027705      -272.8677
  21   2.0000     -10.022312      -272.7210
  22   2.0000      -9.993468      -271.9361
  23   2.0000      -9.992629      -271.9133
  24   2.0000      -9.983278      -271.6588
  25   2.0000      -1.133171       -30.8351
  26   2.0000      -1.047708       -28.5096
  27   2.0000      -0.985809       -26.8252
  28   2.0000      -0.970594       -26.4112
  29   2.0000      -0.958732       -26.0884
  30   2.0000      -0.952411       -25.9164
  31   2.0000      -0.902644       -24.5622
  32   2.0000      -0.882390       -24.0111
  33   2.0000      -0.838152       -22.8073
  34   2.0000      -0.814304       -22.1583
  35   2.0000      -0.758524       -20.6405
  36   2.0000      -0.733164       -19.9504
  37   2.0000      -0.700964       -19.0742
  38   2.0000      -0.683043       -18.5865
  39   2.0000      -0.665715       -18.1150
  40   2.0000      -0.645871       -17.5750
  41   2.0000      -0.635883       -17.3032
  42   2.0000      -0.618550       -16.8316
  43   2.0000      -0.598317       -16.2810
  44   2.0000      -0.575004       -15.6467
  45   2.0000      -0.568651       -15.4738
  46   2.0000      -0.536175       -14.5901
  47   2.0000      -0.512541       -13.9470
  48   2.0000      -0.503742       -13.7075
  49   2.0000      -0.488331       -13.2882
  50   2.0000      -0.477033       -12.9807
  51   2.0000      -0.453410       -12.3379
  52   2.0000      -0.447351       -12.1730
  53   2.0000      -0.443155       -12.0589
  54   2.0000      -0.429627       -11.6907
  55   2.0000      -0.427405       -11.6303
  56   2.0000      -0.408886       -11.1264
  57   2.0000      -0.406115       -11.0509
  58   2.0000      -0.399683       -10.8759
  59   2.0000      -0.392030       -10.6677
  60   2.0000      -0.389135       -10.5889
  61   2.0000      -0.382293       -10.4027
  62   2.0000      -0.377129       -10.2622
  63   2.0000      -0.371240       -10.1019
  64   2.0000      -0.369560       -10.0562
  65   2.0000      -0.356503        -9.7009
  66   2.0000      -0.354396        -9.6436
  67   2.0000      -0.338637        -9.2148
  68   2.0000      -0.336274        -9.1505
  69   2.0000      -0.330234        -8.9861
  70   2.0000      -0.329854        -8.9758
  71   2.0000      -0.323076        -8.7913
  72   2.0000      -0.318194        -8.6585
  73   2.0000      -0.317613        -8.6427
  74   2.0000      -0.313572        -8.5327
  75   2.0000      -0.305268        -8.3068
  76   2.0000      -0.300662        -8.1814
  77   2.0000      -0.296284        -8.0623
  78   2.0000      -0.288433        -7.8487
  79   2.0000      -0.270927        -7.3723
  80   2.0000      -0.267396        -7.2762
  81   2.0000      -0.257446        -7.0055
  82   2.0000      -0.256541        -6.9808
  83   2.0000      -0.249587        -6.7916
  84   2.0000      -0.232498        -6.3266
  85   2.0000      -0.228347        -6.2136
  86   2.0000      -0.223880        -6.0921
  87   2.0000      -0.211405        -5.7526
  88   2.0000      -0.205651        -5.5961
  89   2.0000      -0.155093        -4.2203
  90   2.0000      -0.149930        -4.0798
  91   2.0000      -0.138515        -3.7692
  92   2.0000      -0.085408        -2.3241
  93   0.0000      -0.070841        -1.9277
  94   0.0000      -0.034913        -0.9500
  95   0.0000      -0.008983        -0.2445
  96   0.0000       0.061564         1.6752
  97   0.0000       0.072462         1.9718

MULLIKEN ATOMIC CHARGES
-----------------------
   0 C :   -0.331836
   1 O :   -0.183771
   2 C :    0.198656
   3 O :   -0.485270
   4 C :    0.011488
   5 C :   -0.154388
   6 O :   -0.387820
   7 C :   -0.232682
   8 O :   -0.448305
   9 N :   -0.214268
  10 C :    0.181919
  11 C :   -0.719461
  12 C :    0.216175
  13 C :   -0.761205
  14 C :   -0.668007
  15 N :    0.035616
  16 C :   -0.222934
  17 O :   -0.449577
  18 C :    0.374389
  19 N :   -0.167179
  20 N :   -0.310138
  21 C :    0.395392
  22 C :   -0.644478
  23 O :   -0.040785
  24 N :   -0.260803
  25 H :    0.166633
  26 H :    0.165972
  27 H :    0.166594
  28 H :    0.335123
  29 H :    0.165028
  30 H :    0.162342
  31 H :    0.160131
  32 H :    0.184587
  33 H :    0.179368
  34 H :    0.163670
  35 H :    0.170640
  36 H :    0.178510
  37 H :    0.186070
  38 H :    0.290027
  39 H :    0.198622
  40 H :    0.201259
  41 H :    0.194697
Sum of atomic charges:   -2.0000000

LOEWDIN ATOMIC CHARGES
----------------------
   0 C :   -0.052174
   1 O :   -0.596933
   2 C :    0.404494
   3 O :   -0.511148
   4 C :    0.131958
   5 C :    0.160612
   6 O :   -0.548771
   7 C :    0.257911
   8 O :   -0.622720
   9 N :   -0.742891
  10 C :    0.213081
  11 C :   -0.379185
  12 C :    0.097791
  13 C :   -0.369168
  14 C :   -0.372207
  15 N :   -0.612985
  16 C :    0.363500
  17 O :   -0.501233
  18 C :    0.417625
  19 N :   -0.378773
  20 N :   -0.378968
  21 C :    0.365492
  22 C :   -0.321815
  23 O :   -0.376046
  24 N :   -0.804565
  25 H :    0.175145
  26 H :    0.179101
  27 H :    0.174948
  28 H :    0.289206
  29 H :    0.156760
  30 H :    0.154422
  31 H :    0.156289
  32 H :    0.171344
  33 H :    0.168523
  34 H :    0.154086
  35 H :    0.165562
  36 H :    0.166563
  37 H :    0.171101
  38 H :    0.308874
  39 H :    0.189104
  40 H :    0.188550
  41 H :    0.187540

  Mayer bond orders larger than 0.100000
B(  0-C ,  1-O ) :   0.8464 B(  0-C , 25-H ) :   0.9622 B(  0-C , 26-H ) :   0.9662
B(  0-C , 27-H ) :   0.9618 B(  1-O ,  2-C ) :   1.1087 B(  2-C ,  3-O ) :   1.7218
B(  2-C ,  4-C ) :   1.1240 B(  4-C ,  5-C ) :   1.1724 B(  4-C , 24-N ) :   1.2523
B(  5-C ,  6-O ) :   1.0830 B(  5-C ,  7-C ) :   0.8949 B(  5-C , 24-N ) :   0.1430
B(  6-O , 28-H ) :   0.8010 B(  7-C ,  8-O ) :   2.0873 B(  7-C ,  9-N ) :   1.5490
B(  9-N , 10-C ) :   0.8374 B( 10-C , 11-C ) :   0.8886 B( 10-C , 12-C ) :   0.9118
B( 10-C , 24-N ) :   0.7256 B( 11-C , 29-H ) :   0.9933 B( 11-C , 30-H ) :   0.9835
B( 11-C , 31-H ) :   0.9798 B( 12-C , 13-C ) :   0.8036 B( 12-C , 14-C ) :   0.8348
B( 12-C , 15-N ) :   0.9712 B( 12-C , 24-N ) :  -0.1052 B( 13-C , 32-H ) :   0.9765
B( 13-C , 33-H ) :   0.9993 B( 13-C , 34-H ) :   0.9774 B( 14-C , 35-H ) :   0.9796
B( 14-C , 36-H ) :   0.9758 B( 14-C , 37-H ) :   0.9764 B( 15-N , 16-C ) :   1.1795
B( 15-N , 38-H ) :   0.8269 B( 16-C , 17-O ) :   1.8910 B( 16-C , 18-C ) :   0.7979
B( 18-C , 19-N ) :   1.6559 B( 18-C , 23-O ) :   1.1035 B( 19-N , 20-N ) :   1.2174
B( 20-N , 21-C ) :   1.6395 B( 21-C , 22-C ) :   0.8295 B( 21-C , 23-O ) :   1.0674
B( 22-C , 39-H ) :   0.9408 B( 22-C , 40-H ) :   0.9914 B( 22-C , 41-H ) :   0.9496

Dispersion correction           -0.019691057
FINAL SINGLE POINT ENERGY     -1268.836155885232

DIPOLE MOMENT
-------------
                                X             Y             Z
Electronic contribution:      5.29558      -9.64325       0.76733
Nuclear contribution   :     -0.85579      14.38155      -0.93561
                        -----------------------------------------
Total Dipole Moment    :      4.43978       4.73830      -0.16828
                        -----------------------------------------
Magnitude (a.u.)       :      6.49550
Magnitude (Debye)      :     16.51025

Rotational constants in cm-1:     0.017483     0.003412     0.002991
Rotational constants in MHz :   524.138406   102.301094    89.679729

                             ****ORCA TERMINATED NORMALLY****
TOTAL RUN TIME: 0 days 0 hours 3 minutes 43 seconds 548 msec
