   * xtb version 6.5.1 (579679a) compiled by 'ehlert@majestix' on 2022-07-11
          program call               : /lustre/hpc/kemi/ree/PhD/git/ReactivityQM/dep/xtb-6.5.1/bin/xtb --gfn 1 /lustre/hpc/kemi/ree/PhD/git/ReactivityQM/calculations/R02deprot/reac01prodE06/conf17/R02deprot_reac01prodE06_conf17_gfn1.xyz --opt --vfukui --chrg -2 --uhf 0 --alpb DMSO

   ID    Z sym.   atoms
    1    6 C      1, 3, 5, 6, 8, 11-15, 17, 19, 22, 23
    2    8 O      2, 4, 7, 9, 18, 24
    3    7 N      10, 16, 20, 21, 25
    4    1 H      26-42

      * Solvation model:               ALPB
        Solvent                        DMSO
        Solvent mass                       7.8130E+01 g/mol
          :  Hamiltonian                  GFN1-xTB          :
 * total energy  :   -83.5878044 Eh     change       -0.5640999E-09 Eh
 * total energy  :   -83.5986243 Eh     change       -0.1081988E-01 Eh
 * total energy  :   -83.6028265 Eh     change       -0.4202253E-02 Eh
 * total energy  :   -83.6037998 Eh     change       -0.9733095E-03 Eh
 * total energy  :   -83.6045498 Eh     change       -0.7499441E-03 Eh
 * total energy  :   -83.6048495 Eh     change       -0.2997275E-03 Eh
 * total energy  :   -83.6050493 Eh     change       -0.1998411E-03 Eh
 * total energy  :   -83.6052231 Eh     change       -0.1737605E-03 Eh
 * total energy  :   -83.6053771 Eh     change       -0.1539762E-03 Eh
 * total energy  :   -83.6055206 Eh     change       -0.1435366E-03 Eh
 * total energy  :   -83.6060878 Eh     change       -0.2339486E-04 Eh
 * total energy  :   -83.6061006 Eh     change       -0.1278586E-04 Eh
 * total energy  :   -83.6061025 Eh     change       -0.1896594E-05 Eh
 * total energy  :   -83.6061258 Eh     change       -0.2323380E-04 Eh
 * total energy  :   -83.6061329 Eh     change       -0.7100243E-05 Eh
 * total energy  :   -83.6061408 Eh     change       -0.7914293E-05 Eh
 * total energy  :   -83.6061345 Eh     change        0.6271313E-05 Eh
 * total energy  :   -83.6061424 Eh     change       -0.7860689E-05 Eh
 * total energy  :   -83.6061458 Eh     change       -0.3393813E-05 Eh
   *** GEOMETRY OPTIMIZATION CONVERGED AFTER 36 ITERATIONS ***

 final structure:
================
42
 xtb: 6.5.1 (579679a)
C           -5.87546655716696        1.82297484999591        0.47522853620219
O           -4.56923960490986        1.29083963118149        0.32179085665589
C           -4.48029856416537       -0.06349886093817        0.27636500654850
O           -5.49998433961953       -0.74763730244243        0.36710794769855
C           -3.11478900182870       -0.56848568582356        0.11940685857800
C           -2.86335433722070       -1.93541102013803        0.15507391884407
O           -3.86115304584601       -2.88604742951667        0.25887597873408
C           -1.46085563213967       -2.41821543636972        0.24376149243074
O           -1.21853578438388       -3.62992003115124        0.51184839465754
N           -0.49759624156626       -1.51827556778592        0.08035596923069
C           -0.82418736641691       -0.16432495733012       -0.31144496469773
C           -0.58783980378895       -0.04634365906913       -1.84907154252856
C            0.20480708335379        0.76578565349936        0.44732377954984
C           -0.12007817002697        0.69561590080769        1.94738010843103
C            0.11945125233747        2.21327752294998       -0.03664573259555
N            1.52017722732486        0.17599853580656        0.22835984214263
C            2.71925155201867        0.78253207989676        0.25173182890026
O            2.91769038440158        1.99362444590221        0.41981050336865
C            3.81152645995648       -0.17912149599957        0.02999515841318
N            3.69196213310097       -1.46969034983367       -0.17626544934723
N            4.96093961819016       -1.96903668813595       -0.29154148272739
C            5.77003454889920       -0.96999478427040       -0.14923729631938
C            7.25134546824832       -0.99893932809244       -0.18247234303959
O            5.12203381881890        0.19272693508623        0.05763095998561
N           -2.14372313006406        0.35704677127245       -0.02115351579768
H           -6.33612676257312        1.46308172404598        1.40069463801379
H           -5.77920857315479        2.90755883656133        0.51043254247372
H           -6.51238115635150        1.53645366032913       -0.36756010692066
H           -4.72882153152186       -2.44159209721154        0.29333139894148
H            0.46540993180964       -0.19803607360968       -2.08630143934459
H           -0.90687471949847        0.92970879733921       -2.21151611613609
H           -1.17580877991345       -0.81212150899774       -2.35484685367089
H           -1.12961354978692        1.07551124780153        2.10956540160465
H           -0.07377779860312       -0.34000513929981        2.28817087584760
H            0.58388518047592        1.29254313904046        2.52673199999619
H            0.58571361183888        2.33364614789471       -1.01353831040354
H            0.60646662488268        2.89411270441791        0.66100426106379
H           -0.93480911917357        2.48665656528653       -0.11092338657157
H            1.49106189022511       -0.84551878934536        0.17187729647270
H            7.65528201165135       -0.72917362478832        0.79329328614347
H            7.59109578382135       -1.99686981456335       -0.44710581741029
H            7.62638898836992       -0.28143750440158       -0.91123248341423

          :  Hamiltonian                  GFN1-xTB          :
         :: total energy             -83.606145756964 Eh    ::
         :: gradient norm              0.000416616683 Eh/a0 ::
         :: HOMO-LUMO gap              0.181807120858 eV    ::
         :: SCC energy               -84.327271238695 Eh    ::
         :: -> Gsolv                  -0.277216497721 Eh    ::
         :: repulsion energy           0.748027961386 Eh    ::

    * Orbital Energies and Occupations

         #    Occupation            Energy/Eh            Energy/eV
      -------------------------------------------------------------
         1        2.0000           -0.8282160             -22.5369
       ...           ...                  ...                  ...
        56        2.0000           -0.4393352             -11.9549
        57        2.0000           -0.4294551             -11.6861
        58        2.0000           -0.4254739             -11.5777
        59        2.0000           -0.4207235             -11.4485
        60        2.0000           -0.4173336             -11.3562
        61        2.0000           -0.4065321             -11.0623
        62        2.0000           -0.4002749             -10.8920
        63        2.0000           -0.3908039             -10.6343
        64        2.0000           -0.3743420             -10.1864
        65        2.0000           -0.3473893              -9.4529
        66        2.0000           -0.3232537              -8.7962
        67        2.0000           -0.3141268              -8.5478
        68        1.9423           -0.2799195              -7.6170 (HOMO)
        69        0.0577           -0.2732382              -7.4352 (LUMO)
        70                         -0.2407652              -6.5516
        71                         -0.2291838              -6.2364
        72                         -0.1567491              -4.2654
        73                         -0.1423062              -3.8723
        74                         -0.1324945              -3.6054
        75                         -0.1172827              -3.1914
        76                         -0.0929266              -2.5287
        77                         -0.0860315              -2.3410
        78                         -0.0784250              -2.1341
        79                         -0.0722975              -1.9673
       ...                                ...                  ...
       134                          0.7353083              20.0088
      -------------------------------------------------------------
                  HL-Gap            0.0066813 Eh            0.1818 eV

Wiberg/Mayer (AO) data.
largest (>0.10) Wiberg bond orders for each atom

     #   Z sym  total        # sym  WBO       # sym  WBO       # sym  WBO
 ---------------------------------------------------------------------------
     1   6 C    3.902 --    27 H    0.987    28 H    0.980    26 H    0.980
                             2 O    0.928
     2   8 O    2.164 --     3 C    1.053     1 C    0.928     4 O    0.105
     3   6 C    3.813 --     4 O    1.556     5 C    1.071     2 O    1.053
     4   8 O    1.888 --     3 C    1.556     2 O    0.105
     5   6 C    3.960 --     6 C    1.376    25 N    1.304     3 C    1.071
     6   6 C    3.793 --     5 C    1.376     8 C    1.037     7 O    1.010
                            25 N    0.160
     7   8 O    1.975 --     6 C    1.010    29 H    0.828
     8   6 C    3.936 --    10 N    1.405     9 O    1.400     6 C    1.037
     9   8 O    1.680 --     8 C    1.400    10 N    0.171
    10   7 N    2.903 --     8 C    1.405    11 C    1.001     9 O    0.171
    11   6 C    3.960 --    25 N    1.002    10 N    1.001    12 C    0.955
                            13 C    0.921
    12   6 C    3.984 --    32 H    0.986    30 H    0.986    31 H    0.986
                            11 C    0.955
    13   6 C    3.914 --    15 C    1.003    14 C    0.988    16 N    0.926
                            11 C    0.921
    14   6 C    3.995 --    35 H    0.988    13 C    0.988    34 H    0.983
                            33 H    0.982
    15   6 C    3.997 --    13 C    1.003    36 H    0.985    37 H    0.984
                            38 H    0.982
    16   7 N    3.370 --    17 C    1.263    13 C    0.926    39 H    0.884
                            18 O    0.169
    17   6 C    3.900 --    18 O    1.489    16 N    1.263    19 C    1.030
    18   8 O    1.786 --    17 C    1.489    16 N    0.169
    19   6 C    3.786 --    20 N    1.533    17 C    1.030    24 O    1.022
    20   7 N    2.909 --    19 C    1.533    21 N    1.182
    21   7 N    2.979 --    22 C    1.627    20 N    1.182
    22   6 C    3.852 --    21 N    1.627    24 O    1.067    23 C    1.026
    23   6 C    3.992 --    22 C    1.026    41 H    0.984    42 H    0.970
                            40 H    0.967
    24   8 O    2.259 --    22 C    1.067    19 C    1.022
    25   7 N    2.750 --     5 C    1.304    11 C    1.002     6 C    0.160
    26   1 H    1.015 --     1 C    0.980
    27   1 H    1.016 --     1 C    0.987
    28   1 H    1.014 --     1 C    0.980
    29   1 H    0.898 --     7 O    0.828
    30   1 H    1.016 --    12 C    0.986
    31   1 H    1.018 --    12 C    0.986
    32   1 H    1.018 --    12 C    0.986
    33   1 H    1.026 --    14 C    0.982
    34   1 H    1.025 --    14 C    0.983
    35   1 H    1.008 --    14 C    0.988
    36   1 H    1.012 --    15 C    0.985
    37   1 H    1.021 --    15 C    0.984
    38   1 H    1.029 --    15 C    0.982
    39   1 H    1.007 --    16 N    0.884
    40   1 H    1.000 --    23 C    0.967
    41   1 H    1.002 --    23 C    0.984
    42   1 H    1.000 --    23 C    0.970
 ---------------------------------------------------------------------------

           -------------------------------------------------
          | TOTAL ENERGY              -83.606145756964 Eh   |
          | GRADIENT NORM               0.000416616683 Eh/α |
          | HOMO-LUMO GAP               0.181807120858 eV   |
           -------------------------------------------------

 * finished run on 2023/06/20 at 17:45:09.882
