   * xtb version 6.5.1 (579679a) compiled by 'ehlert@majestix' on 2022-07-11
          program call               : /lustre/hpc/kemi/ree/PhD/git/ReactivityQM/dep/xtb-6.5.1/bin/xtb --gfn 1 /lustre/hpc/kemi/ree/PhD/git/ReactivityQM/calculations/R01/reac01prodE03/conf09/R01_reac01prodE03_conf09_gfn1.xyz --opt --vfukui --chrg -1 --uhf 0 --alpb DMSO

   ID    Z sym.   atoms
    1    6 C      1, 3, 5, 6, 9, 10
    2    8 O      2, 4, 11
    3    7 N      7, 8
    4    1 H      12-20

      * Solvation model:               ALPB
        Solvent                        DMSO
        Solvent mass                       7.8130E+01 g/mol
          :  Hamiltonian                  GFN1-xTB          :
 * total energy  :   -38.3095284 Eh     change       -0.2422240E-10 Eh
 * total energy  :   -38.3208425 Eh     change       -0.1131419E-01 Eh
 * total energy  :   -38.3244400 Eh     change       -0.3597452E-02 Eh
 * total energy  :   -38.3250208 Eh     change       -0.5808332E-03 Eh
 * total energy  :   -38.3255920 Eh     change       -0.5711561E-03 Eh
 * total energy  :   -38.3259554 Eh     change       -0.3634328E-03 Eh
 * total energy  :   -38.3265367 Eh     change       -0.5812998E-03 Eh
 * total energy  :   -38.3270662 Eh     change       -0.5294390E-03 Eh
 * total energy  :   -38.3274775 Eh     change       -0.4113259E-03 Eh
 * total energy  :   -38.3278613 Eh     change       -0.3837744E-03 Eh
 * total energy  :   -38.3290199 Eh     change       -0.4563702E-04 Eh
 * total energy  :   -38.3290342 Eh     change       -0.1422958E-04 Eh
 * total energy  :   -38.3290621 Eh     change       -0.2796074E-04 Eh
 * total energy  :   -38.3290785 Eh     change       -0.1641148E-04 Eh
 * total energy  :   -38.3291148 Eh     change       -0.3623296E-04 Eh
 * total energy  :   -38.3291202 Eh     change       -0.5460186E-05 Eh
 * total energy  :   -38.3291237 Eh     change       -0.3495888E-05 Eh
 * total energy  :   -38.3291341 Eh     change       -0.1038254E-04 Eh
 * total energy  :   -38.3291374 Eh     change       -0.3286304E-05 Eh
   *** GEOMETRY OPTIMIZATION CONVERGED AFTER 33 ITERATIONS ***

 final structure:
================
20
 xtb: 6.5.1 (579679a)
C           -2.61389983053518        1.39947458629945        0.60798618192473
O           -1.33256376480553        0.78592638278231        0.58264165682520
C           -1.30492954320751       -0.51490415185861        0.18797515194295
O           -2.33760841451619       -1.12540420584091       -0.07846358299782
C            0.09628847647032       -1.02146518418578       -0.14095211851423
C            0.23823621998925       -2.53300599134723        0.04673315828706
N            0.08608610328434       -0.59268428838669       -1.53938770940234
N            1.00496528606566        0.42412140571731       -1.60547678152989
C            1.57838916481936        0.57793186238051       -0.47339788578656
C            2.65889617628681        1.53805370219521       -0.11897698496968
O            1.12357027264030       -0.30355526077131        0.51829963474324
H           -3.06945047068046        1.39614041864157       -0.38825669036084
H           -3.27843074199725        0.87482276068269        1.30143079036289
H           -2.47226613546054        2.42590925506356        0.94437857088911
H            0.28292830240384       -2.77806727725377        1.10650570558243
H           -0.61671180446442       -3.03240116629153       -0.40545718622940
H            1.15170606416958       -2.87112147415364       -0.43813620371258
H            3.55864468094216        1.01015737906978        0.20512618059433
H            2.34742500242778        2.19539064773113        0.69570449698902
H            2.89872595616794        2.14468059952688       -0.99005538463844

          :  Hamiltonian                  GFN1-xTB          :
         :: total energy             -38.329137399376 Eh    ::
         :: gradient norm              0.000681688925 Eh/a0 ::
         :: HOMO-LUMO gap              2.059655029390 eV    ::
         :: SCC energy               -38.635835193613 Eh    ::
         :: -> Gsolv                  -0.104122099445 Eh    ::
         :: repulsion energy           0.315580678750 Eh    ::

    * Orbital Energies and Occupations

         #    Occupation            Energy/Eh            Energy/eV
      -------------------------------------------------------------
         1        2.0000           -0.7921299             -21.5550
       ...           ...                  ...                  ...
        19        2.0000           -0.5035691             -13.7028
        20        2.0000           -0.4984528             -13.5636
        21        2.0000           -0.4935651             -13.4306
        22        2.0000           -0.4883666             -13.2891
        23        2.0000           -0.4755492             -12.9404
        24        2.0000           -0.4681817             -12.7399
        25        2.0000           -0.4608261             -12.5397
        26        2.0000           -0.4578755             -12.4594
        27        2.0000           -0.4195783             -11.4173
        28        2.0000           -0.4134676             -11.2510
        29        2.0000           -0.3890846             -10.5875
        30        2.0000           -0.3626373              -9.8679
        31        2.0000           -0.2894763              -7.8771 (HOMO)
        32                         -0.2137854              -5.8174 (LUMO)
        33                         -0.1708051              -4.6478
        34                         -0.1206415              -3.2828
        35                         -0.1131760              -3.0797
        36                         -0.0979984              -2.6667
        37                         -0.0583209              -1.5870
        38                         -0.0572864              -1.5588
        39                         -0.0469533              -1.2777
        40                         -0.0454587              -1.2370
        41                         -0.0392868              -1.0690
        42                         -0.0342616              -0.9323
       ...                                ...                  ...
        62                          0.6696775              18.2229
      -------------------------------------------------------------
                  HL-Gap            0.0756909 Eh            2.0597 eV

Wiberg/Mayer (AO) data.
largest (>0.10) Wiberg bond orders for each atom

     #   Z sym  total        # sym  WBO       # sym  WBO       # sym  WBO
 ---------------------------------------------------------------------------
     1   6 C    3.903 --    14 H    0.987    13 H    0.981    12 H    0.981
                             2 O    0.926
     2   8 O    2.152 --     3 C    1.043     1 C    0.926     4 O    0.104
     3   6 C    3.815 --     4 O    1.570     2 O    1.043     5 C    0.921
                             7 N    0.177
     4   8 O    1.855 --     3 C    1.570     2 O    0.104
     5   6 C    3.901 --     6 C    0.980     7 N    0.967    11 O    0.928
                             3 C    0.921
     6   6 C    3.996 --    15 H    0.987    17 H    0.986    16 H    0.986
                             5 C    0.980
     7   7 N    2.659 --     8 N    1.162     5 C    0.967     3 C    0.177
                             9 C    0.162
     8   7 N    3.014 --     9 C    1.688     7 N    1.162
     9   6 C    3.879 --     8 N    1.688    10 C    1.018    11 O    0.938
                             7 N    0.162
    10   6 C    3.996 --     9 C    1.018    20 H    0.987    19 H    0.976
                            18 H    0.975
    11   8 O    2.066 --     9 C    0.938     5 C    0.928
    12   1 H    1.014 --     1 C    0.981
    13   1 H    1.015 --     1 C    0.981
    14   1 H    1.017 --     1 C    0.987
    15   1 H    1.009 --     6 C    0.987
    16   1 H    1.017 --     6 C    0.986
    17   1 H    1.018 --     6 C    0.986
    18   1 H    1.008 --    10 C    0.975
    19   1 H    1.008 --    10 C    0.976
    20   1 H    1.009 --    10 C    0.987
 ---------------------------------------------------------------------------

           -------------------------------------------------
          | TOTAL ENERGY              -38.329137399376 Eh   |
          | GRADIENT NORM               0.000681688925 Eh/α |
          | HOMO-LUMO GAP               2.059655029390 eV   |
           -------------------------------------------------

 * finished run on 2023/06/20 at 14:53:21.200
