   * xtb version 6.5.1 (579679a) compiled by 'ehlert@majestix' on 2022-07-11
          program call               : /lustre/hpc/kemi/ree/PhD/git/ReactivityQM/dep/xtb-6.5.1/bin/xtb --gfn 1 /lustre/hpc/kemi/ree/PhD/git/ReactivityQM/calculations/R03/reac01prodN06/conf05/R03_reac01prodN06_conf05_gfn1.xyz --opt --vfukui --chrg 1 --uhf 0 --alpb DMSO

   ID    Z sym.   atoms
    1    6 C      1, 3-7, 9, 10
    2    9 F      2
    3    7 N      8
    4    1 H      11-21

      * Solvation model:               ALPB
        Solvent                        DMSO
        Solvent mass                       7.8130E+01 g/mol
          :  Hamiltonian                  GFN1-xTB          :
 * total energy  :   -30.7182655 Eh     change       -0.3222311E-11 Eh
 * total energy  :   -30.7296689 Eh     change       -0.1140342E-01 Eh
 * total energy  :   -30.7329515 Eh     change       -0.3282645E-02 Eh
 * total energy  :   -30.7333271 Eh     change       -0.3755992E-03 Eh
 * total energy  :   -30.7335284 Eh     change       -0.2012599E-03 Eh
 * total energy  :   -30.7336907 Eh     change       -0.1622649E-03 Eh
 * total energy  :   -30.7338444 Eh     change       -0.1537730E-03 Eh
 * total energy  :   -30.7340073 Eh     change       -0.1628083E-03 Eh
 * total energy  :   -30.7340983 Eh     change       -0.9100073E-04 Eh
 * total energy  :   -30.7341778 Eh     change       -0.7951188E-04 Eh
 * total energy  :   -30.7342850 Eh     change       -0.2458992E-04 Eh
 * total energy  :   -30.7343362 Eh     change       -0.5125475E-04 Eh
 * total energy  :   -30.7343574 Eh     change       -0.2121462E-04 Eh
 * total energy  :   -30.7343766 Eh     change       -0.1917146E-04 Eh
 * total energy  :   -30.7343794 Eh     change       -0.2814904E-05 Eh
 * total energy  :   -30.7343868 Eh     change       -0.7404638E-05 Eh
 * total energy  :   -30.7343903 Eh     change       -0.3509580E-05 Eh
 * total energy  :   -30.7343937 Eh     change       -0.3409434E-05 Eh
 * total energy  :   -30.7343983 Eh     change       -0.4608172E-05 Eh
   *** GEOMETRY OPTIMIZATION CONVERGED AFTER 21 ITERATIONS ***

 final structure:
================
21
 xtb: 6.5.1 (579679a)
C            3.92987719512633       -0.29620400518157        0.15801357367987
F            2.79028271979835        0.43688789628019        0.64763468069056
C            1.37105761212470        0.27699121680786        0.29779403293254
C            0.59680039957719       -0.41215399684829        1.19496022939850
C           -0.75141605705481       -0.51191909052197        0.87428830479475
C           -1.25650202732691        0.06067078075234       -0.29305366873272
C           -2.71959796258232       -0.07375020229579       -0.62760605340046
N           -3.50859728204316       -0.30525965771235        0.57652117210797
C           -0.39943792618918        0.73986214654278       -1.15929067229262
C            0.95551814956072        0.85885154744328       -0.87178786048383
H            4.61169975306497        0.46651321213079       -0.20635034643628
H            4.30639307706600       -0.83905508771647        1.02014351830323
H            3.55937242315969       -0.94728218256886       -0.62751514219447
H            1.00988248898872       -0.84462158940592        2.09500966505630
H           -1.42439521657992       -1.03872652281032        1.54149750138804
H           -2.84060522218941       -0.93857336755510       -1.28978563442567
H           -3.05939988813638        0.81656814586687       -1.17539807414519
H           -4.44159306221664       -0.57931106779643        0.30153799423891
H           -3.58330686985951        0.56195455084975        1.09041069241872
H           -0.78307433141862        1.18598457341668       -2.06876555693327
H            1.63704202712789        1.38257070032165       -1.52622635596682

          :  Hamiltonian                  GFN1-xTB          :
         :: total energy             -30.734398341407 Eh    ::
         :: gradient norm              0.000805732249 Eh/a0 ::
         :: HOMO-LUMO gap              2.895178992061 eV    ::
         :: SCC energy               -31.143534141162 Eh    ::
         :: -> Gsolv                  -0.082464709826 Eh    ::
         :: repulsion energy           0.418521950060 Eh    ::

    * Orbital Energies and Occupations

         #    Occupation            Energy/Eh            Energy/eV
      -------------------------------------------------------------
         1        2.0000           -1.0064250             -27.3862
       ...           ...                  ...                  ...
        15        2.0000           -0.5903742             -16.0649
        16        2.0000           -0.5813520             -15.8194
        17        2.0000           -0.5781410             -15.7320
        18        2.0000           -0.5728723             -15.5886
        19        2.0000           -0.5697062             -15.5025
        20        2.0000           -0.5584234             -15.1955
        21        2.0000           -0.5379926             -14.6395
        22        2.0000           -0.5261665             -14.3177
        23        2.0000           -0.5100533             -13.8793
        24        2.0000           -0.5037630             -13.7081
        25        2.0000           -0.4874209             -13.2634
        26        2.0000           -0.4758763             -12.9493
        27        2.0000           -0.4171980             -11.3525 (HOMO)
        28                         -0.3108021              -8.4574 (LUMO)
        29                         -0.3092746              -8.4158
        30                         -0.2604011              -7.0859
        31                         -0.1887372              -5.1358
        32                         -0.1805298              -4.9125
        33                         -0.1397897              -3.8039
        34                         -0.1378557              -3.7512
        35                         -0.1295192              -3.5244
        36                         -0.1267712              -3.4496
        37                         -0.1236963              -3.3659
        38                         -0.1184106              -3.2221
       ...                                ...                  ...
        62                          0.6150869              16.7374
      -------------------------------------------------------------
                  HL-Gap            0.1063959 Eh            2.8952 eV

Wiberg/Mayer (AO) data.
largest (>0.10) Wiberg bond orders for each atom

     #   Z sym  total        # sym  WBO       # sym  WBO       # sym  WBO
 ---------------------------------------------------------------------------
     1   6 C    3.679 --    13 H    0.980    12 H    0.978    11 H    0.977
                             2 F    0.716
     2   9 F    1.433 --     1 C    0.716     3 C    0.629
     3   6 C    3.684 --    10 C    1.430     4 C    1.430     2 F    0.629
     4   6 C    3.984 --     3 C    1.430     5 C    1.426    14 H    0.962
                             9 C    0.108
     5   6 C    3.986 --     4 C    1.426     6 C    1.409    15 H    0.962
                            10 C    0.108
     6   6 C    3.980 --     9 C    1.411     5 C    1.409     7 C    1.010
     7   6 C    3.980 --     6 C    1.010     8 N    1.002    17 H    0.966
                            16 H    0.956
     8   7 N    2.952 --     7 C    1.002    19 H    0.945    18 H    0.938
     9   6 C    3.988 --    10 C    1.427     6 C    1.411    20 H    0.966
                             4 C    0.108
    10   6 C    3.985 --     3 C    1.430     9 C    1.427    21 H    0.962
                             5 C    0.108
    11   1 H    0.992 --     1 C    0.977
    12   1 H    0.992 --     1 C    0.978
    13   1 H    0.994 --     1 C    0.980
    14   1 H    0.991 --     4 C    0.962
    15   1 H    1.013 --     5 C    0.962
    16   1 H    1.007 --     7 C    0.956
    17   1 H    1.000 --     7 C    0.966
    18   1 H    0.952 --     8 N    0.938
    19   1 H    0.956 --     8 N    0.945
    20   1 H    0.994 --     9 C    0.966
    21   1 H    0.990 --    10 C    0.962
 ---------------------------------------------------------------------------

           -------------------------------------------------
          | TOTAL ENERGY              -30.734398341407 Eh   |
          | GRADIENT NORM               0.000805732249 Eh/α |
          | HOMO-LUMO GAP               2.895178992061 eV   |
           -------------------------------------------------

 * finished run on 2023/06/20 at 15:14:59.764
