   * xtb version 6.5.1 (579679a) compiled by 'ehlert@majestix' on 2022-07-11
          program call               : /lustre/hpc/kemi/ree/PhD/git/ReactivityQM/dep/xtb-6.5.1/bin/xtb --gfn 1 /lustre/hpc/kemi/ree/PhD/git/ReactivityQM/calculations/R01/reac02prodN10/conf05/R01_reac02prodN10_conf05_gfn1.xyz --opt --vfukui --chrg 1 --uhf 0 --alpb DMSO

   ID    Z sym.   atoms
    1    6 C      1, 3, 4, 6, 8-11, 14, 16
    2    8 O      2, 5, 15, 17
    3    7 N      7, 12, 13
    4    1 H      18-33

      * Solvation model:               ALPB
        Solvent                        DMSO
        Solvent mass                       7.8130E+01 g/mol
          :  Hamiltonian                  GFN1-xTB          :
 * total energy  :   -57.7914170 Eh     change       -0.1497824E-10 Eh
 * total energy  :   -57.8027494 Eh     change       -0.1133243E-01 Eh
 * total energy  :   -57.8061619 Eh     change       -0.3412434E-02 Eh
 * total energy  :   -57.8070342 Eh     change       -0.8722876E-03 Eh
 * total energy  :   -57.8077385 Eh     change       -0.7043048E-03 Eh
 * total energy  :   -57.8082158 Eh     change       -0.4773768E-03 Eh
 * total energy  :   -57.8085950 Eh     change       -0.3791853E-03 Eh
 * total energy  :   -57.8089230 Eh     change       -0.3279531E-03 Eh
 * total energy  :   -57.8091376 Eh     change       -0.2146099E-03 Eh
 * total energy  :   -57.8094952 Eh     change       -0.3575920E-03 Eh
 * total energy  :   -57.8135623 Eh     change       -0.5954204E-04 Eh
 * total energy  :   -57.8135918 Eh     change       -0.2953824E-04 Eh
 * total energy  :   -57.8136105 Eh     change       -0.1868261E-04 Eh
 * total energy  :   -57.8136315 Eh     change       -0.2101124E-04 Eh
 * total energy  :   -57.8136458 Eh     change       -0.1429707E-04 Eh
 * total energy  :   -57.8136612 Eh     change       -0.1541713E-04 Eh
 * total energy  :   -57.8136663 Eh     change       -0.5072911E-05 Eh
 * total energy  :   -57.8136723 Eh     change       -0.6028840E-05 Eh
 * total energy  :   -57.8136759 Eh     change       -0.3613056E-05 Eh
   *** GEOMETRY OPTIMIZATION CONVERGED AFTER 38 ITERATIONS ***

 final structure:
================
33
 xtb: 6.5.1 (579679a)
C            4.22894080494741       -1.54397321165372       -0.51314990099366
O            3.23376919352056       -0.63029935375798        0.03355739972021
C            3.71851412310586        0.73917352508964        0.16980613789936
C            1.88477378928481       -0.78214465500788       -0.62411744264800
O            1.87811278363921       -1.30297820291674       -1.68471996395812
C            0.79741835959752       -0.31562409838194        0.20674070637972
N           -0.40293655405038       -0.30172025748815       -0.47060323533781
C           -1.47918976722545        0.04020393619881        0.15767245655292
C           -2.80433357091086        0.12297784612819       -0.56746223072881
C           -2.79490023176309        1.41488727824028       -1.39680937616469
C           -2.97739761801814       -1.10316349290615       -1.47435872750965
N           -3.85804736797260        0.20592429784339        0.43635580667850
N           -1.48324074863337        0.39027153745943        1.47380140369098
C           -0.37040899667844        0.39499576048282        2.26014808399971
O           -0.35679328386334        0.68948370413934        3.44181786932374
C            0.85622086247119        0.01197663134340        1.54237306900778
O            1.96362056533983        0.00438438407824        2.27098217475329
H            5.11718201024746       -1.43514975105376        0.10272896537180
H            4.43091759170726       -1.28634519993927       -1.55273025943545
H            3.81288252625889       -2.54518642028697       -0.42955657596287
H            4.42414703701415        0.73565030772433        0.99726205808903
H            2.86332603894989        1.36829556130856        0.39754956806831
H            4.19138277831439        1.04693775730439       -0.76239021017352
H           -3.72507704900839        1.49912178169664       -1.95627524484729
H           -2.69467486340662        2.27805323913256       -0.74029727014055
H           -1.95865464185559        1.40062732081866       -2.09472161995388
H           -2.98318587644409       -2.01290366645430       -0.87583582527314
H           -3.91910060672433       -1.02838969919396       -2.01483806748753
H           -2.15487269122997       -1.15477554402935       -2.18720899576361
H           -4.68365328770475        0.63143689230194        0.03788360119086
H           -4.10777774767024       -0.72259834761293        0.74990024597469
H           -2.38845890614936        0.63959336644136        1.86943648058802
H            1.74149134491073        0.23755977295186        3.19705891909009

          :  Hamiltonian                  GFN1-xTB          :
         :: total energy             -57.813675935612 Eh    ::
         :: gradient norm              0.000908975676 Eh/a0 ::
         :: HOMO-LUMO gap              1.388476905981 eV    ::
         :: SCC energy               -58.397488519377 Eh    ::
         :: -> Gsolv                  -0.098000848767 Eh    ::
         :: repulsion energy           0.602667906849 Eh    ::

    * Orbital Energies and Occupations

         #    Occupation            Energy/Eh            Energy/eV
      -------------------------------------------------------------
         1        2.0000           -0.9289986             -25.2793
       ...           ...                  ...                  ...
        35        2.0000           -0.5553178             -15.1110
        36        2.0000           -0.5517623             -15.0142
        37        2.0000           -0.5448193             -14.8253
        38        2.0000           -0.5266802             -14.3317
        39        2.0000           -0.5217404             -14.1973
        40        2.0000           -0.5166788             -14.0595
        41        2.0000           -0.5128219             -13.9546
        42        2.0000           -0.5092434             -13.8572
        43        2.0000           -0.4968400             -13.5197
        44        2.0000           -0.4853771             -13.2078
        45        2.0000           -0.4764218             -12.9641
        46        2.0000           -0.4576613             -12.4536
        47        2.0000           -0.4279710             -11.6457 (HOMO)
        48                         -0.3769454             -10.2572 (LUMO)
        49                         -0.3059779              -8.3261
        50                         -0.2861843              -7.7875
        51                         -0.1938463              -5.2748
        52                         -0.1809735              -4.9245
        53                         -0.1724241              -4.6919
        54                         -0.1344093              -3.6575
        55                         -0.1318731              -3.5884
        56                         -0.1286753              -3.5014
        57                         -0.1282216              -3.4891
        58                         -0.1195878              -3.2541
       ...                                ...                  ...
       100                          0.7481373              20.3579
      -------------------------------------------------------------
                  HL-Gap            0.0510256 Eh            1.3885 eV

Wiberg/Mayer (AO) data.
largest (>0.10) Wiberg bond orders for each atom

     #   Z sym  total        # sym  WBO       # sym  WBO       # sym  WBO
 ---------------------------------------------------------------------------
     1   6 C    3.788 --    19 H    0.979    18 H    0.977    20 H    0.976
                             2 O    0.817
     2   8 O    2.482 --     1 C    0.817     3 C    0.810     4 C    0.735
     3   6 C    3.786 --    23 H    0.980    21 H    0.976    22 H    0.976
                             2 O    0.810
     4   6 C    3.799 --     5 O    1.821     6 C    1.101     2 O    0.735
     5   8 O    2.084 --     4 C    1.821
     6   6 C    3.961 --    16 C    1.442     7 N    1.157     4 C    1.101
     7   7 N    3.013 --     8 C    1.575     6 C    1.157
     8   6 C    3.911 --     7 N    1.575    13 N    1.176     9 C    0.980
     9   6 C    3.964 --    12 N    0.991    11 C    0.981     8 C    0.980
                            10 C    0.975
    10   6 C    3.991 --    25 H    0.985    26 H    0.985    24 H    0.982
                             9 C    0.975
    11   6 C    3.992 --    27 H    0.985    28 H    0.984    29 H    0.983
                             9 C    0.981
    12   7 N    2.985 --     9 C    0.991    31 H    0.937    30 H    0.932
    13   7 N    3.490 --     8 C    1.176    14 C    1.165    32 H    0.852
                            15 O    0.142
    14   6 C    3.918 --    15 O    1.594    13 N    1.165    16 C    1.034
    15   8 O    1.921 --    14 C    1.594    13 N    0.142
    16   6 C    3.911 --     6 C    1.442    17 O    1.145    14 C    1.034
    17   8 O    2.123 --    16 C    1.145    33 H    0.782
    18   1 H    0.994 --     1 C    0.977
    19   1 H    0.997 --     1 C    0.979
    20   1 H    0.995 --     1 C    0.976
    21   1 H    0.997 --     3 C    0.976
    22   1 H    1.001 --     3 C    0.976
    23   1 H    0.992 --     3 C    0.980
    24   1 H    0.998 --    10 C    0.982
    25   1 H    1.001 --    10 C    0.985
    26   1 H    1.004 --    10 C    0.985
    27   1 H    1.002 --    11 C    0.985
    28   1 H    1.001 --    11 C    0.984
    29   1 H    1.007 --    11 C    0.983
    30   1 H    0.947 --    12 N    0.932
    31   1 H    0.950 --    12 N    0.937
    32   1 H    0.937 --    13 N    0.852
    33   1 H    0.824 --    17 O    0.782
 ---------------------------------------------------------------------------

           -------------------------------------------------
          | TOTAL ENERGY              -57.813675935612 Eh   |
          | GRADIENT NORM               0.000908975676 Eh/α |
          | HOMO-LUMO GAP               1.388476905981 eV   |
           -------------------------------------------------

 * finished run on 2023/06/20 at 15:10:17.501
