   * xtb version 6.5.1 (579679a) compiled by 'ehlert@majestix' on 2022-07-11
          program call               : /lustre/hpc/kemi/ree/PhD/git/ReactivityQM/dep/xtb-6.5.1/bin/xtb --gfn 1 /lustre/hpc/kemi/ree/PhD/git/ReactivityQM/calculations/R02methylcation/reac01/conf05/R02methylcation_reac01_conf05_gfn1.xyz --opt --vfukui --chrg -1 --uhf 0 --alpb DMSO

   ID    Z sym.   atoms
    1    6 C      1, 3, 5, 7-10, 12, 14, 17, 18, 21, 23
    2    8 O      2, 4, 13, 19, 22, 24
    3    7 N      6, 11, 15, 16, 20
    4    1 H      25-38

      * Solvation model:               ALPB
        Solvent                        DMSO
        Solvent mass                       7.8130E+01 g/mol
          :  Hamiltonian                  GFN1-xTB          :
 * total energy  :   -79.6016790 Eh     change       -0.3136336E-10 Eh
 * total energy  :   -79.6148681 Eh     change       -0.1318909E-01 Eh
 * total energy  :   -79.6196455 Eh     change       -0.4777456E-02 Eh
 * total energy  :   -79.6203242 Eh     change       -0.6786489E-03 Eh
 * total energy  :   -79.6206565 Eh     change       -0.3322682E-03 Eh
 * total energy  :   -79.6207910 Eh     change       -0.1345787E-03 Eh
 * total energy  :   -79.6209202 Eh     change       -0.1291613E-03 Eh
 * total energy  :   -79.6210252 Eh     change       -0.1050300E-03 Eh
 * total energy  :   -79.6211194 Eh     change       -0.9413532E-04 Eh
 * total energy  :   -79.6212024 Eh     change       -0.8306324E-04 Eh
 * total energy  :   -79.6219078 Eh     change       -0.1089739E-04 Eh
 * total energy  :   -79.6219198 Eh     change       -0.1199029E-04 Eh
 * total energy  :   -79.6219291 Eh     change       -0.9252195E-05 Eh
 * total energy  :   -79.6219371 Eh     change       -0.8051718E-05 Eh
 * total energy  :   -79.6219482 Eh     change       -0.1103942E-04 Eh
 * total energy  :   -79.6219615 Eh     change       -0.1335186E-04 Eh
 * total energy  :   -79.6219551 Eh     change        0.6362483E-05 Eh
 * total energy  :   -79.6219671 Eh     change       -0.1199189E-04 Eh
 * total energy  :   -79.6219720 Eh     change       -0.4869934E-05 Eh
   *** GEOMETRY OPTIMIZATION CONVERGED AFTER 42 ITERATIONS ***

 final structure:
================
38
 xtb: 6.5.1 (579679a)
C           -6.56878278622671        0.79482560264409        1.20984886816530
O           -5.40722635660762       -0.02098663638666        1.15456917510535
C           -4.34880848758321        0.50340987786855        0.48683992543548
O           -4.42083475751826        1.61818285214618       -0.01743741595105
C           -3.17577199590924       -0.35640700570587        0.43227516540483
N           -2.13077728107071        0.21467563850438       -0.27127206379533
C           -1.02657967362895       -0.41186399815460       -0.42690588754895
C            0.10283059474906        0.19243712604321       -1.23453569296089
C            0.24739483642913       -0.57681032846492       -2.55604786493910
C           -0.17698751762677        1.67652235766952       -1.48900012407107
N            1.33654480513031        0.04911229642331       -0.44425989607296
C            2.54746691662268        0.45227402547144       -0.86972915795135
O            2.79748069990934        0.94957909143890       -1.95495155166289
C            3.58396003657410        0.21117541270801        0.17145848283970
N            3.39137995715258       -0.31988332422192        1.34074344308612
N            4.60288269547670       -0.34481784594771        1.96618518988067
C            5.45619964382336        0.17403640246572        1.13783160389331
C            6.90660451154880        0.38178740658323        1.34077496432986
O            4.87432352984785        0.54471152470118       -0.01263147001388
N           -0.82564001671807       -1.67803330656521        0.09058756511428
C           -1.77024688860444       -2.36083477237057        0.81503510528756
O           -1.51350848413740       -3.48288722873880        1.24375701489724
C           -3.08819844678091       -1.64533943335052        1.02057649559328
O           -3.97993318370016       -2.22213311342992        1.66939111950342
H           -6.93610285573955        1.01408087267699        0.20229600581041
H           -7.32419524512681        0.23927931805987        1.76434923088289
H           -6.35547854309237        1.73968148895638        1.71969476855090
H            0.50362903257101       -1.61588567237266       -2.35682815792811
H            1.02601020004710       -0.13328512176479       -3.17322758588499
H           -0.69646002486642       -0.54187557972809       -3.09838218050309
H            0.60403276725196        2.10831580818109       -2.11117793801879
H           -1.13645455221620        1.77837226439823       -1.99469566742836
H           -0.22055806920612        2.21381076523113       -0.54232654040033
H            1.26473328366985       -0.30788007294407        0.49746094462419
H            7.46763278033982       -0.11819100241723        0.55254831390944
H            7.13880491488261        1.44542989208227        1.29625469260836
H            7.20341731574879       -0.01362108610955        2.30874809331394
H            0.04721564457912       -2.15096549557727       -0.07279797311103

          :  Hamiltonian                  GFN1-xTB          :
         :: total energy             -79.621972001910 Eh    ::
         :: gradient norm              0.000887020227 Eh/a0 ::
         :: HOMO-LUMO gap              1.688254535448 eV    ::
         :: SCC energy               -80.349602582376 Eh    ::
         :: -> Gsolv                  -0.121241697405 Eh    ::
         :: repulsion energy           0.750330352888 Eh    ::

    * Orbital Energies and Occupations

         #    Occupation            Energy/Eh            Energy/eV
      -------------------------------------------------------------
         1        2.0000           -0.8598331             -23.3972
       ...           ...                  ...                  ...
        52        2.0000           -0.4845568             -13.1855
        53        2.0000           -0.4781085             -13.0100
        54        2.0000           -0.4650852             -12.6556
        55        2.0000           -0.4594210             -12.5015
        56        2.0000           -0.4563616             -12.4182
        57        2.0000           -0.4555304             -12.3956
        58        2.0000           -0.4469674             -12.1626
        59        2.0000           -0.4404992             -11.9866
        60        2.0000           -0.4399591             -11.9719
        61        2.0000           -0.4364945             -11.8776
        62        2.0000           -0.4172712             -11.3545
        63        2.0000           -0.3795706             -10.3286
        64        2.0000           -0.3667131              -9.9788 (HOMO)
        65                         -0.3046709              -8.2905 (LUMO)
        66                         -0.2707780              -7.3682
        67                         -0.2533818              -6.8949
        68                         -0.2402495              -6.5375
        69                         -0.1976552              -5.3785
        70                         -0.1928327              -5.2472
        71                         -0.1406875              -3.8283
        72                         -0.1216732              -3.3109
        73                         -0.1175284              -3.1981
        74                         -0.1131459              -3.0789
        75                         -0.1090026              -2.9661
       ...                                ...                  ...
       124                          0.7550326              20.5455
      -------------------------------------------------------------
                  HL-Gap            0.0620422 Eh            1.6883 eV

Wiberg/Mayer (AO) data.
largest (>0.10) Wiberg bond orders for each atom

     #   Z sym  total        # sym  WBO       # sym  WBO       # sym  WBO
 ---------------------------------------------------------------------------
     1   6 C    3.899 --    26 H    0.987    27 H    0.980    25 H    0.980
                             2 O    0.925
     2   8 O    2.161 --     3 C    1.049     1 C    0.925     4 O    0.110
     3   6 C    3.850 --     4 O    1.576     5 C    1.113     2 O    1.049
     4   8 O    1.851 --     3 C    1.576     2 O    0.110
     5   6 C    3.915 --    23 C    1.272     6 N    1.153     3 C    1.113
                            24 O    0.130
     6   7 N    3.032 --     7 C    1.639     5 C    1.153
     7   6 C    3.933 --     6 N    1.639    20 N    1.087     8 C    0.979
     8   6 C    3.929 --    10 C    0.994     9 C    0.982     7 C    0.979
                            11 N    0.911
     9   6 C    3.990 --    30 H    0.986    28 H    0.985     8 C    0.982
                            29 H    0.980
    10   6 C    3.992 --     8 C    0.994    33 H    0.986    31 H    0.984
                            32 H    0.983
    11   7 N    3.353 --    12 C    1.268     8 C    0.911    34 H    0.896
                            13 O    0.181
    12   6 C    3.919 --    13 O    1.586    11 N    1.268    14 C    0.984
    13   8 O    1.904 --    12 C    1.586    11 N    0.181
    14   6 C    3.873 --    15 N    1.614    19 O    1.064    12 C    0.984
    15   7 N    3.015 --    14 C    1.614    16 N    1.196
    16   7 N    2.980 --    17 C    1.609    15 N    1.196
    17   6 C    3.872 --    16 N    1.609    19 O    1.082    18 C    1.031
    18   6 C    3.987 --    17 C    1.031    37 H    0.983    35 H    0.965
                            36 H    0.963
    19   8 O    2.328 --    17 C    1.082    14 C    1.064
    20   7 N    3.422 --    21 C    1.158     7 C    1.087    38 H    0.898
                            22 O    0.135
    21   6 C    3.877 --    22 O    1.580    20 N    1.158    23 C    0.967
    22   8 O    1.861 --    21 C    1.580    20 N    0.135
    23   6 C    3.943 --    24 O    1.521     5 C    1.272    21 C    0.967
    24   8 O    1.826 --    23 C    1.521     5 C    0.130
    25   1 H    1.014 --     1 C    0.980
    26   1 H    1.016 --     1 C    0.987
    27   1 H    1.014 --     1 C    0.980
    28   1 H    1.003 --     9 C    0.985
    29   1 H    1.010 --     9 C    0.980
    30   1 H    1.004 --     9 C    0.986
    31   1 H    1.010 --    10 C    0.984
    32   1 H    1.014 --    10 C    0.983
    33   1 H    1.008 --    10 C    0.986
    34   1 H    0.955 --    11 N    0.896
    35   1 H    0.997 --    18 C    0.965
    36   1 H    0.997 --    18 C    0.963
    37   1 H    0.999 --    18 C    0.983
    38   1 H    0.945 --    20 N    0.898
 ---------------------------------------------------------------------------

           -------------------------------------------------
          | TOTAL ENERGY              -79.621972001910 Eh   |
          | GRADIENT NORM               0.000887020227 Eh/α |
          | HOMO-LUMO GAP               1.688254535448 eV   |
           -------------------------------------------------

 * finished run on 2023/06/21 at 17:04:06.527
