   * xtb version 6.5.1 (579679a) compiled by 'ehlert@majestix' on 2022-07-11
          program call               : /lustre/hpc/kemi/ree/PhD/git/ReactivityQM/dep/xtb-6.5.1/bin/xtb --gfn 1 /lustre/hpc/kemi/ree/PhD/git/ReactivityQM/calculations/R03/reac02prodE01/conf14/R03_reac02prodE01_conf14_gfn1.xyz --opt --vfukui --chrg -1 --uhf 0 --alpb DMSO

   ID    Z sym.   atoms
    1    6 C      1, 3, 5, 7-10, 12, 13, 15, 18, 19, 22, 23, 25
    2    8 O      2, 4, 14, 20, 24, 26
    3    7 N      6, 11, 16, 17, 21
    4    1 H      27-46

      * Solvation model:               ALPB
        Solvent                        DMSO
        Solvent mass                       7.8130E+01 g/mol
          :  Hamiltonian                  GFN1-xTB          :
 * total energy  :   -87.0287724 Eh     change       -0.8844836E-10 Eh
 * total energy  :   -87.0421497 Eh     change       -0.1337722E-01 Eh
 * total energy  :   -87.0465523 Eh     change       -0.4402619E-02 Eh
 * total energy  :   -87.0474984 Eh     change       -0.9460874E-03 Eh
 * total energy  :   -87.0478756 Eh     change       -0.3772459E-03 Eh
 * total energy  :   -87.0480072 Eh     change       -0.1315766E-03 Eh
 * total energy  :   -87.0481130 Eh     change       -0.1057611E-03 Eh
 * total energy  :   -87.0481914 Eh     change       -0.7839696E-04 Eh
 * total energy  :   -87.0482521 Eh     change       -0.6075216E-04 Eh
 * total energy  :   -87.0482989 Eh     change       -0.4678988E-04 Eh
 * total energy  :   -87.0488060 Eh     change       -0.2615952E-04 Eh
 * total energy  :   -87.0488181 Eh     change       -0.1210860E-04 Eh
 * total energy  :   -87.0488372 Eh     change       -0.1911120E-04 Eh
 * total energy  :   -87.0488565 Eh     change       -0.1937466E-04 Eh
 * total energy  :   -87.0488750 Eh     change       -0.1846697E-04 Eh
 * total energy  :   -87.0488796 Eh     change       -0.4603939E-05 Eh
 * total energy  :   -87.0488860 Eh     change       -0.6373104E-05 Eh
 * total energy  :   -87.0488924 Eh     change       -0.6400401E-05 Eh
 * total energy  :   -87.0488956 Eh     change       -0.3197894E-05 Eh
   *** GEOMETRY OPTIMIZATION CONVERGED AFTER 45 ITERATIONS ***

 final structure:
================
46
 xtb: 6.5.1 (579679a)
C           -6.17859746720298        2.40827271708952        1.05566560436189
O           -5.23664270848481        1.64054055374644        0.30535170546974
C           -4.07209552495896        1.37927763165777        0.90344563023444
O           -3.80515576934644        1.76882341720099        2.01871490874422
C           -3.15136010685700        0.55667491262348        0.06810503574301
N           -1.95498665202226        0.27846695919989        0.66175799486019
C           -1.05175675574148       -0.45344580077805        0.08515844225804
C            0.22972262281671       -0.70099731663375        0.89148670702510
C            0.03075955071856       -2.03866798292471        1.62593875514290
C            0.36796424428599        0.44011666084232        1.92004839830168
N            1.36559345320652       -0.71505221078728       -0.02684855854657
C            2.73184935323399       -1.16945021844848        0.55532620162463
C            3.03240321518353       -2.53038175303843       -0.16100425006054
O            2.83755069961353       -1.20208371780726        1.84992942801259
C            3.75226525564346       -0.15677767314708       -0.05742807540970
N            5.00379468760801       -0.39405893832242       -0.29873246489688
N            5.58161667452452        0.80820403404665       -0.65974201446830
C            4.64175046660927        1.69010597996753       -0.60675613625743
C            4.74372935393236        3.13792825155374       -0.91331796608749
O            3.46257848970393        1.15440492865529       -0.23113679898336
N           -1.27199255791045       -1.01091428908754       -1.15437116719503
C           -0.31422997203668       -1.89242281409360       -1.82619231992393
C           -2.42534908597546       -0.75015589438878       -1.86043624823029
O           -2.64170456248138       -1.19920023820507       -2.98781908180371
C           -3.40998518279525        0.08021531472330       -1.18640058985277
O           -4.53692246404351        0.30529654486521       -1.88164730218271
H           -6.43819519434531        1.88750771790592        1.98103699393732
H           -5.75995977304184        3.38797347508464        1.29925707175556
H           -7.06011170783078        2.52152280623542        0.42811505083644
H           -0.89236047484630       -1.99718124241613        2.20464663032603
H            0.86385935055908       -2.22237285241212        2.30325978640635
H           -0.04009374163233       -2.86741431769327        0.92342657433848
H            0.39600320290574        1.40083037143215        1.40646549819248
H           -0.47499941051068        0.43542470521424        2.61043228731889
H            1.29101221025456        0.31264484812881        2.48387062813862
H            1.47703879949887        0.23504843508332       -0.37467698369874
H            2.34388707378964       -3.28645971364346        0.21047993378114
H            2.91683779752151       -2.43208825253042       -1.23863456781743
H            4.05325643732486       -2.83326768989912        0.07089926597742
H            4.12572399293584        3.38392776141398       -1.77615621728518
H            4.39494738895452        3.73000884828626       -0.06763204264269
H            5.77870804956941        3.39055466921992       -1.13117970996292
H           -0.84836054647854       -2.45206483792877       -2.59329348455952
H            0.47285104469841       -1.29767807347297       -2.28769219922244
H            0.12759781148245       -2.58071755524618       -1.11236134003514
H           -4.45843856803615       -0.15091716125364       -2.74107701364725

          :  Hamiltonian                  GFN1-xTB          :
         :: total energy             -87.048895587088 Eh    ::
         :: gradient norm              0.000564468810 Eh/a0 ::
         :: HOMO-LUMO gap              1.005701974679 eV    ::
         :: SCC energy               -87.839836166929 Eh    ::
         :: -> Gsolv                  -0.113156800471 Eh    ::
         :: repulsion energy           0.820655321302 Eh    ::

    * Orbital Energies and Occupations

         #    Occupation            Energy/Eh            Energy/eV
      -------------------------------------------------------------
         1        2.0000           -0.8321686             -22.6445
       ...           ...                  ...                  ...
        59        2.0000           -0.4652619             -12.6604
        60        2.0000           -0.4609444             -12.5429
        61        2.0000           -0.4562239             -12.4145
        62        2.0000           -0.4498034             -12.2398
        63        2.0000           -0.4437721             -12.0757
        64        2.0000           -0.4367103             -11.8835
        65        2.0000           -0.4291164             -11.6769
        66        2.0000           -0.4160994             -11.3226
        67        2.0000           -0.4134611             -11.2508
        68        2.0000           -0.4121537             -11.2153
        69        2.0000           -0.3788375             -10.3087
        70        2.0000           -0.3514592              -9.5637
        71        2.0000           -0.3476940              -9.4612 (HOMO)
        72                         -0.3107351              -8.4555 (LUMO)
        73                         -0.2652430              -7.2176
        74                         -0.2291328              -6.2350
        75                         -0.2278396              -6.1998
        76                         -0.2123776              -5.7791
        77                         -0.1435841              -3.9071
        78                         -0.1347959              -3.6680
        79                         -0.1292650              -3.5175
        80                         -0.1228264              -3.3423
        81                         -0.1052053              -2.8628
        82                         -0.0878218              -2.3898
       ...                                ...                  ...
       144                          0.7350073              20.0006
      -------------------------------------------------------------
                  HL-Gap            0.0369589 Eh            1.0057 eV

Wiberg/Mayer (AO) data.
largest (>0.10) Wiberg bond orders for each atom

     #   Z sym  total        # sym  WBO       # sym  WBO       # sym  WBO
 ---------------------------------------------------------------------------
     1   6 C    3.877 --    29 H    0.986    27 H    0.980    28 H    0.980
                             2 O    0.902
     2   8 O    2.198 --     3 C    1.106     1 C    0.902     4 O    0.132
     3   6 C    3.846 --     4 O    1.654     2 O    1.106     5 C    1.002
     4   8 O    1.916 --     3 C    1.654     2 O    0.132
     5   6 C    3.967 --    25 C    1.490     6 N    1.198     3 C    1.002
     6   7 N    3.028 --     7 C    1.558     5 C    1.198
     7   6 C    3.906 --     6 N    1.558    21 N    1.163     8 C    0.967
     8   6 C    3.963 --    10 C    0.985    11 N    0.983     9 C    0.977
                             7 C    0.967
     9   6 C    3.992 --    30 H    0.987    32 H    0.980     8 C    0.977
                            31 H    0.972
    10   6 C    3.994 --    33 H    0.986    34 H    0.986     8 C    0.985
                            35 H    0.975
    11   7 N    2.998 --     8 C    0.983    36 H    0.943    12 C    0.836
    12   6 C    3.935 --    14 O    1.216    13 C    0.939    15 C    0.888
                            11 N    0.836
    13   6 C    3.992 --    38 H    0.990    39 H    0.986    37 H    0.985
                            12 C    0.939
    14   8 O    1.577 --    12 C    1.216
    15   6 C    3.811 --    16 N    1.652    20 O    1.047    12 C    0.888
    16   7 N    2.968 --    15 C    1.652    17 N    1.149
    17   7 N    2.976 --    18 C    1.657    16 N    1.149
    18   6 C    3.886 --    17 N    1.657    20 O    1.059    19 C    1.024
    19   6 C    3.993 --    18 C    1.024    42 H    0.985    41 H    0.971
                            40 H    0.969
    20   8 O    2.301 --    18 C    1.059    15 C    1.047
    21   7 N    3.521 --     7 C    1.163    23 C    1.154    22 C    0.927
                            24 O    0.136
    22   6 C    3.922 --    45 H    0.977    43 H    0.977    44 H    0.974
                            21 N    0.927
    23   6 C    3.919 --    24 O    1.528    21 N    1.154    25 C    1.084
    24   8 O    1.879 --    23 C    1.528    21 N    0.136
    25   6 C    3.919 --     5 C    1.490    26 O    1.092    23 C    1.084
    26   8 O    2.069 --    25 C    1.092    46 H    0.809
    27   1 H    1.008 --     1 C    0.980
    28   1 H    1.008 --     1 C    0.980
    29   1 H    1.012 --     1 C    0.986
    30   1 H    1.008 --     9 C    0.987
    31   1 H    1.029 --     9 C    0.972
    32   1 H    1.009 --     9 C    0.980
    33   1 H    1.010 --    10 C    0.986
    34   1 H    1.018 --    10 C    0.986
    35   1 H    1.032 --    10 C    0.975
    36   1 H    0.979 --    11 N    0.943
    37   1 H    1.016 --    13 C    0.985
    38   1 H    1.016 --    13 C    0.990
    39   1 H    1.020 --    13 C    0.986
    40   1 H    1.002 --    19 C    0.969
    41   1 H    1.001 --    19 C    0.971
    42   1 H    1.003 --    19 C    0.985
    43   1 H    1.010 --    22 C    0.977
    44   1 H    1.024 --    22 C    0.974
    45   1 H    1.027 --    22 C    0.977
    46   1 H    0.855 --    26 O    0.809
 ---------------------------------------------------------------------------

           -------------------------------------------------
          | TOTAL ENERGY              -87.048895587088 Eh   |
          | GRADIENT NORM               0.000564468810 Eh/α |
          | HOMO-LUMO GAP               1.005701974679 eV   |
           -------------------------------------------------

 * finished run on 2023/06/20 at 15:15:06.924
