   * xtb version 6.5.1 (579679a) compiled by 'ehlert@majestix' on 2022-07-11
          program call               : /lustre/hpc/kemi/ree/PhD/git/ReactivityQM/dep/xtb-6.5.1/bin/xtb --gfn 1 /lustre/hpc/kemi/ree/PhD/git/ReactivityQM/calculations/R03/reac01prodN04/conf08/R03_reac01prodN04_conf08_gfn1.xyz --opt --vfukui --chrg 1 --uhf 0 --alpb DMSO

   ID    Z sym.   atoms
    1    6 C      1-5, 7-9
    2    7 N      6
    3    9 F      10
    4    1 H      11-21

      * Solvation model:               ALPB
        Solvent                        DMSO
        Solvent mass                       7.8130E+01 g/mol
          :  Hamiltonian                  GFN1-xTB          :
 * total energy  :   -30.7629553 Eh     change       -0.3980816E-10 Eh
 * total energy  :   -30.7672037 Eh     change       -0.4248470E-02 Eh
 * total energy  :   -30.7683494 Eh     change       -0.1145711E-02 Eh
 * total energy  :   -30.7685256 Eh     change       -0.1761989E-03 Eh
 * total energy  :   -30.7686842 Eh     change       -0.1585732E-03 Eh
 * total energy  :   -30.7687786 Eh     change       -0.9437859E-04 Eh
 * total energy  :   -30.7689408 Eh     change       -0.1622586E-03 Eh
 * total energy  :   -30.7690828 Eh     change       -0.1419243E-03 Eh
 * total energy  :   -30.7692039 Eh     change       -0.1211138E-03 Eh
 * total energy  :   -30.7693177 Eh     change       -0.1137950E-03 Eh
 * total energy  :   -30.7696125 Eh     change       -0.6833000E-04 Eh
 * total energy  :   -30.7696331 Eh     change       -0.2062691E-04 Eh
 * total energy  :   -30.7696714 Eh     change       -0.3829380E-04 Eh
 * total energy  :   -30.7696893 Eh     change       -0.1788460E-04 Eh
 * total energy  :   -30.7697228 Eh     change       -0.3349777E-04 Eh
 * total energy  :   -30.7697422 Eh     change       -0.1934909E-04 Eh
 * total energy  :   -30.7697524 Eh     change       -0.1024700E-04 Eh
 * total energy  :   -30.7697597 Eh     change       -0.7292416E-05 Eh
 * total energy  :   -30.7697638 Eh     change       -0.4074055E-05 Eh
   *** GEOMETRY OPTIMIZATION CONVERGED AFTER 23 ITERATIONS ***

 final structure:
================
21
 xtb: 6.5.1 (579679a)
C            2.41657545107427        1.25193641106728        0.13394498709967
C            1.42607656770197        0.15333725144749       -0.33104248219638
C            0.01187732017326        0.53685723004855       -0.20645290748350
C           -0.93733338163106       -0.29158255199213        0.33250551699660
C           -2.37535964533610        0.15800715838707        0.42497074380699
N           -2.63271044016068        1.20366595535125       -0.55447109720528
C           -0.54842903795483       -1.55309502342684        0.82813797604259
C            0.77038707861061       -1.99950431645765        0.76730611555575
C            1.71996243399812       -1.17120986696934        0.22876146754295
F            2.96763746109701       -1.55702508818173        0.17413962489549
H            2.26939089769558        1.44307909555012        1.19445464883664
H            2.23329322575093        2.16380304636982       -0.42923436407703
H            3.43600788419618        0.91389457320355       -0.03914992923429
H            1.61071717514876        0.05929474874255       -1.41829305596787
H           -0.28076017397284        1.51480143494770       -0.57619330425117
H           -2.54185911637851        0.56664207742213        1.42692201124516
H           -3.04149087404984       -0.70455774331685        0.29528382452247
H           -2.78053654827236        0.78283332888178       -1.46119070079087
H           -3.47440640957544        1.69886355770798       -0.29668416409708
H           -1.29764540431887       -2.19762176250162        1.27514124229666
H            1.04860453620372       -2.97241951628181        1.15438984646254

          :  Hamiltonian                  GFN1-xTB          :
         :: total energy             -30.769763771604 Eh    ::
         :: gradient norm              0.000492506263 Eh/a0 ::
         :: HOMO-LUMO gap              0.342158482431 eV    ::
         :: SCC energy               -31.161687718449 Eh    ::
         :: -> Gsolv                  -0.081799157189 Eh    ::
         :: repulsion energy           0.401776136564 Eh    ::

    * Orbital Energies and Occupations

         #    Occupation            Energy/Eh            Energy/eV
      -------------------------------------------------------------
         1        2.0000           -0.9458645             -25.7383
       ...           ...                  ...                  ...
        15        2.0000           -0.5994769             -16.3126
        16        2.0000           -0.5959005             -16.2153
        17        2.0000           -0.5876984             -15.9921
        18        2.0000           -0.5807460             -15.8029
        19        2.0000           -0.5632794             -15.3276
        20        2.0000           -0.5564442             -15.1416
        21        2.0000           -0.5485275             -14.9262
        22        2.0000           -0.5455395             -14.8449
        23        2.0000           -0.5325447             -14.4913
        24        2.0000           -0.5276441             -14.3579
        25        2.0000           -0.5201016             -14.1527
        26        2.0000           -0.4966470             -13.5145
        27        1.9973           -0.4292661             -11.6809 (HOMO)
        28        0.0027           -0.4166920             -11.3388 (LUMO)
        29                         -0.3259876              -8.8706
        30                         -0.2465052              -6.7077
        31                         -0.1593317              -4.3356
        32                         -0.1534039              -4.1743
        33                         -0.1476238              -4.0170
        34                         -0.1366271              -3.7178
        35                         -0.1243775              -3.3845
        36                         -0.1171716              -3.1884
        37                         -0.1043837              -2.8404
        38                         -0.0929534              -2.5294
       ...                                ...                  ...
        62                          0.5450330              14.8311
      -------------------------------------------------------------
                  HL-Gap            0.0125741 Eh            0.3422 eV

Wiberg/Mayer (AO) data.
largest (>0.10) Wiberg bond orders for each atom

     #   Z sym  total        # sym  WBO       # sym  WBO       # sym  WBO
 ---------------------------------------------------------------------------
     1   6 C    3.965 --    11 H    0.983    12 H    0.983    13 H    0.982
                             2 C    0.916
     2   6 C    3.989 --     3 C    1.087     9 C    1.068     1 C    0.916
                            14 H    0.833
     3   6 C    3.950 --     4 C    1.545     2 C    1.087    15 H    0.956
     4   6 C    3.977 --     3 C    1.545     7 C    1.314     5 C    1.002
     5   6 C    3.977 --     6 N    1.006     4 C    1.002    17 H    0.964
                            16 H    0.954
     6   7 N    2.962 --     5 C    1.006    18 H    0.940    19 H    0.931
     7   6 C    3.944 --     8 C    1.403     4 C    1.314    20 H    0.964
     8   6 C    3.982 --     9 C    1.469     7 C    1.403    21 H    0.956
     9   6 C    3.841 --     8 C    1.469     2 C    1.068    10 F    1.030
    10   9 F    1.197 --     9 C    1.030
    11   1 H    0.995 --     1 C    0.983
    12   1 H    0.993 --     1 C    0.983
    13   1 H    0.996 --     1 C    0.982
    14   1 H    0.977 --     2 C    0.833
    15   1 H    1.010 --     3 C    0.956
    16   1 H    1.002 --     5 C    0.954
    17   1 H    0.997 --     5 C    0.964
    18   1 H    0.950 --     6 N    0.940
    19   1 H    0.945 --     6 N    0.931
    20   1 H    0.990 --     7 C    0.964
    21   1 H    0.984 --     8 C    0.956
 ---------------------------------------------------------------------------

           -------------------------------------------------
          | TOTAL ENERGY              -30.769763771604 Eh   |
          | GRADIENT NORM               0.000492506263 Eh/α |
          | HOMO-LUMO GAP               0.342158482431 eV   |
           -------------------------------------------------

 * finished run on 2023/06/20 at 15:14:35.206
