   * xtb version 6.5.1 (579679a) compiled by 'ehlert@majestix' on 2022-07-11
          program call               : /lustre/hpc/kemi/ree/PhD/git/ReactivityQM/dep/xtb-6.5.1/bin/xtb --gfn 1 /lustre/hpc/kemi/ree/PhD/git/ReactivityQM/calculations/RaltegravirCLI/reac01prodE02/conf02/RaltegravirCLI_reac01prodE02_conf02_gfn1.xyz --opt --vfukui --chrg -1 --uhf 0 --alpb DMSO

   ID    Z sym.   atoms
    1    6 C      1-3, 6, 7
    2    7 N      4, 5
    3    8 O      8, 10
    4   17 Cl     9
    5    1 H      11-16

      * Solvation model:               ALPB
        Solvent                        DMSO
        Solvent mass                       7.8130E+01 g/mol
          :  Hamiltonian                  GFN1-xTB          :
 * total energy  :   -34.1679866 Eh     change       -0.7105427E-13 Eh
 * total energy  :   -34.1708142 Eh     change       -0.2827606E-02 Eh
 * total energy  :   -34.1723293 Eh     change       -0.1515134E-02 Eh
 * total energy  :   -34.1726123 Eh     change       -0.2829594E-03 Eh
 * total energy  :   -34.1727408 Eh     change       -0.1284754E-03 Eh
 * total energy  :   -34.1727600 Eh     change       -0.1922980E-04 Eh
 * total energy  :   -34.1727698 Eh     change       -0.9759336E-05 Eh
 * total energy  :   -34.1727726 Eh     change       -0.2829251E-05 Eh
   *** GEOMETRY OPTIMIZATION CONVERGED AFTER 8 ITERATIONS ***

 final structure:
================
16
 xtb: 6.5.1 (579679a)
C           -1.20221438438906        1.43002399245748        0.42185472092398
C           -0.62075436983573        0.06561528462263        0.03043022371962
C           -1.55430248821808       -0.68760241499762       -0.92568973399334
N           -0.40368965119643       -0.74258393761902        1.24272286385992
N            0.84170727825189       -1.00957101901962        1.33272744798960
C            1.52607069293581       -0.46910921838764        0.30404111692250
C            2.88762620191093       -0.58587694759220        0.13026381977441
O            3.72026412908089       -1.16463645867794        0.81547954461666
Cl           3.48755882610343        0.28260530634603       -1.37317873552070
O            0.66377561934219        0.22276935448162       -0.55287502561703
H           -0.51748472120282        1.93359015460903        1.10229650345407
H           -1.33948534693116        2.04549226931957       -0.46500899342376
H           -2.16079348148227        1.29217029414261        0.91722651837379
H           -1.10837239039688       -1.64628343632151       -1.18592503757726
H           -2.51359254442537       -0.85939412370876       -0.44239801822564
H           -1.70631436954735       -0.10720909965464       -1.83359121527691

          :  Hamiltonian                  GFN1-xTB          :
         :: total energy             -34.172772597788 Eh    ::
         :: gradient norm              0.000967118740 Eh/a0 ::
         :: HOMO-LUMO gap              2.082271046170 eV    ::
         :: SCC energy               -34.430501200405 Eh    ::
         :: -> Gsolv                  -0.087502915514 Eh    ::
         :: repulsion energy           0.265368317481 Eh    ::

    * Orbital Energies and Occupations

         #    Occupation            Energy/Eh            Energy/eV
      -------------------------------------------------------------
         1        2.0000           -0.8671471             -23.5963
       ...           ...                  ...                  ...
        16        2.0000           -0.5172852             -14.0760
        17        2.0000           -0.5014045             -13.6439
        18        2.0000           -0.4936061             -13.4317
        19        2.0000           -0.4918183             -13.3831
        20        2.0000           -0.4830652             -13.1449
        21        2.0000           -0.4602713             -12.5246
        22        2.0000           -0.4561236             -12.4118
        23        2.0000           -0.4473698             -12.1736
        24        2.0000           -0.4451609             -12.1134
        25        2.0000           -0.4351996             -11.8424
        26        2.0000           -0.4255502             -11.5798
        27        2.0000           -0.3879684             -10.5572
        28        2.0000           -0.3400021              -9.2519 (HOMO)
        29                         -0.2634800              -7.1697 (LUMO)
        30                         -0.1693298              -4.6077
        31                         -0.1482974              -4.0354
        32                         -0.1101438              -2.9972
        33                         -0.1043960              -2.8408
        34                         -0.0630641              -1.7161
        35                         -0.0518736              -1.4116
        36                         -0.0338586              -0.9213
        37                         -0.0314507              -0.8558
        38                          0.0014011               0.0381
        39                          0.0016197               0.0441
       ...                                ...                  ...
        57                          0.7568881              20.5960
      -------------------------------------------------------------
                  HL-Gap            0.0765221 Eh            2.0823 eV

Wiberg/Mayer (AO) data.
largest (>0.10) Wiberg bond orders for each atom

     #   Z sym  total        # sym  WBO       # sym  WBO       # sym  WBO
 ---------------------------------------------------------------------------
     1   6 C    3.993 --    13 H    0.987    12 H    0.986    11 H    0.985
                             2 C    0.980
     2   6 C    3.897 --     1 C    0.980     3 C    0.980     4 N    0.972
                            10 O    0.924
     3   6 C    3.993 --    15 H    0.987    16 H    0.986    14 H    0.985
                             2 C    0.980
     4   7 N    2.947 --     5 N    1.582     2 C    0.972     7 C    0.119
                             6 C    0.117
     5   7 N    3.025 --     4 N    1.582     6 C    1.285
     6   6 C    3.856 --     7 C    1.358     5 N    1.285    10 O    0.945
                             4 N    0.117     8 O    0.109
     7   6 C    3.903 --     8 O    1.571     6 C    1.358     9 Cl   0.780
                             4 N    0.119
     8   8 O    1.914 --     7 C    1.571     9 Cl   0.113     6 C    0.109
     9  17 Cl   0.954 --     7 C    0.780     8 O    0.113
    10   8 O    2.059 --     6 C    0.945     2 C    0.924
    11   1 H    1.011 --     1 C    0.985
    12   1 H    1.007 --     1 C    0.986
    13   1 H    1.008 --     1 C    0.987
    14   1 H    1.011 --     3 C    0.985
    15   1 H    1.008 --     3 C    0.987
    16   1 H    1.006 --     3 C    0.986
 ---------------------------------------------------------------------------

           -------------------------------------------------
          | TOTAL ENERGY              -34.172772597788 Eh   |
          | GRADIENT NORM               0.000967118740 Eh/α |
          | HOMO-LUMO GAP               2.082271046170 eV   |
           -------------------------------------------------

 * finished run on 2023/06/20 at 14:52:31.663
