   * xtb version 6.5.1 (579679a) compiled by 'ehlert@majestix' on 2022-07-11
          program call               : /lustre/hpc/kemi/ree/PhD/git/ReactivityQM/dep/xtb-6.5.1/bin/xtb --gfn 1 /lustre/hpc/kemi/ree/PhD/git/ReactivityQM/calculations/RaltegravirCLI/reac02prodE05/conf10/RaltegravirCLI_reac02prodE05_conf10_gfn1.xyz --opt --vfukui --chrg -1 --uhf 0 --alpb DMSO

   ID    Z sym.   atoms
    1    6 C      1, 3, 5-9, 11-13, 15-18, 21, 22, 24
    2    8 O      2, 23, 25
    3    7 N      4, 14, 19, 20
    4    9 F      10
    5    1 H      26-47

      * Solvation model:               ALPB
        Solvent                        DMSO
        Solvent mass                       7.8130E+01 g/mol
          :  Hamiltonian                  GFN1-xTB          :
 * total energy  :   -80.1478952 Eh     change       -0.1851674E-09 Eh
 * total energy  :   -80.1615211 Eh     change       -0.1362591E-01 Eh
 * total energy  :   -80.1665705 Eh     change       -0.5049388E-02 Eh
 * total energy  :   -80.1678492 Eh     change       -0.1278731E-02 Eh
 * total energy  :   -80.1694950 Eh     change       -0.1645751E-02 Eh
 * total energy  :   -80.1709463 Eh     change       -0.1451372E-02 Eh
 * total energy  :   -80.1729878 Eh     change       -0.2041465E-02 Eh
 * total energy  :   -80.1750677 Eh     change       -0.2079932E-02 Eh
 * total energy  :   -80.1761763 Eh     change       -0.1108567E-02 Eh
 * total energy  :   -80.1768892 Eh     change       -0.7129444E-03 Eh
 * total energy  :   -80.1854390 Eh     change       -0.3402796E-04 Eh
 * total energy  :   -80.1854818 Eh     change       -0.4281308E-04 Eh
 * total energy  :   -80.1855036 Eh     change       -0.2173919E-04 Eh
 * total energy  :   -80.1855624 Eh     change       -0.5879755E-04 Eh
 * total energy  :   -80.1855813 Eh     change       -0.1899613E-04 Eh
 * total energy  :   -80.1855938 Eh     change       -0.1246180E-04 Eh
 * total energy  :   -80.1856005 Eh     change       -0.6717156E-05 Eh
 * total energy  :   -80.1856090 Eh     change       -0.8432410E-05 Eh
 * total energy  :   -80.1856139 Eh     change       -0.4939098E-05 Eh
   *** GEOMETRY OPTIMIZATION CONVERGED AFTER 52 ITERATIONS ***

 final structure:
================
47
 xtb: 6.5.1 (579679a)
C           -0.14835027948859        3.34352333008756       -0.61901913696372
O            0.78164255350641        2.28753112806724       -0.81717698630226
C            0.98952689343615        1.44844755820231        0.28658388629846
N            2.13445549597219        1.81771083618761        1.06165931553724
C            3.38861798576805        1.87978046807962        0.29063834526328
C            3.80757509343694        0.50361659829728       -0.16186226776801
C            4.74840478381755       -0.22733015097218        0.56272736852592
C            5.08667775480652       -1.52092621483110        0.19144563370520
C            4.45266960393065       -2.07204103146374       -0.90856498859528
F            4.77864131672142       -3.32824859139208       -1.28020157977917
C            3.50928943622382       -1.38425654741980       -1.64874291290129
C            3.18925952366581       -0.08855260234658       -1.26667891153596
C            0.07090866740450        0.49768876864502        0.63921908935420
N           -1.09340894034013        0.42259868522132       -0.14642340002232
C           -2.05033523936219       -0.39702705768638        0.12689547567965
C           -3.26982027370399       -0.29714246846168       -0.79639082402575
C           -4.30546731410988        0.63288839309522       -0.14662376418866
C           -2.84271743566299        0.30415205733148       -2.14706238074255
N           -3.88042602041941       -1.60649357134726       -1.03204222130906
N           -2.03328428526950       -1.24687867732388        1.19788693399556
C           -3.12048193502087       -2.14877347043692        1.55285859794629
C           -0.84838609870494       -1.33606518187461        2.01922209524485
O           -0.81510563249237       -2.18531390315030        2.95712135630416
C            0.15861570905120       -0.45106632430633        1.70735369113774
O            1.32916179587091       -0.52601119310112        2.49535718231469
H           -0.14934427403849        3.95199257628453       -1.52601611903449
H            0.13482277936017        3.97314936967286        0.23480482012583
H           -1.15970136449982        2.95016182488158       -0.45060057834010
H            2.25708413603126        1.16133105239260        1.83249355678541
H            4.15411223569631        2.32145696877340        0.93577112103104
H            3.23235509537824        2.54183361634063       -0.56681569835270
H            5.23496308515449        0.22145666446248        1.42170766176428
H            5.82689458261058       -2.09016669164234        0.73812050975593
H            3.04573761886078       -1.85149198320917       -2.50840343036650
H            2.46209890811723        0.47323942388078       -1.84269336231219
H           -5.15301269653384        0.77395553621776       -0.81622148110808
H           -4.67352474619660        0.22068166674736        0.79179430534162
H           -3.85236463484424        1.60409457254722        0.05240981411805
H           -2.07518453906723       -0.31608281951402       -2.60924349923351
H           -3.70300101937020        0.35403103632852       -2.81314101348442
H           -2.44250353171565        1.30799341548993       -2.00793292946251
H           -3.31574771837376       -2.12884005417173       -1.69065476855605
H           -4.78536902158312       -1.47273114228326       -1.45914323299562
H           -3.13794254072879       -3.02242842316542        0.89659142485227
H           -4.08306708734838       -1.64463772905507        1.48893689914074
H           -2.96550996736778       -2.48462379762579        2.58137698620953
H            1.13054254141954       -1.16618692044962        3.19868241696617

          :  Hamiltonian                  GFN1-xTB          :
         :: total energy             -80.185613898044 Eh    ::
         :: gradient norm              0.000624952029 Eh/a0 ::
         :: HOMO-LUMO gap              0.950612187545 eV    ::
         :: SCC energy               -81.038449498086 Eh    ::
         :: -> Gsolv                  -0.104175208968 Eh    ::
         :: repulsion energy           0.884606505338 Eh    ::

    * Orbital Energies and Occupations

         #    Occupation            Energy/Eh            Energy/eV
      -------------------------------------------------------------
         1        2.0000           -0.8494712             -23.1153
       ...           ...                  ...                  ...
        56        2.0000           -0.4555725             -12.3968
        57        2.0000           -0.4533808             -12.3371
        58        2.0000           -0.4525474             -12.3144
        59        2.0000           -0.4343762             -11.8200
        60        2.0000           -0.4266905             -11.6108
        61        2.0000           -0.4167583             -11.3406
        62        2.0000           -0.4151064             -11.2956
        63        2.0000           -0.3961859             -10.7808
        64        2.0000           -0.3903476             -10.6219
        65        2.0000           -0.3817874             -10.3890
        66        2.0000           -0.3767771             -10.2526
        67        2.0000           -0.3560211              -9.6878
        68        2.0000           -0.2909805              -7.9180 (HOMO)
        69                         -0.2560462              -6.9674 (LUMO)
        70                         -0.2478716              -6.7449
        71                         -0.2161076              -5.8806
        72                         -0.1817460              -4.9456
        73                         -0.1282074              -3.4887
        74                         -0.1180397              -3.2120
        75                         -0.1125373              -3.0623
        76                         -0.1030420              -2.8039
        77                         -0.0996903              -2.7127
        78                         -0.0992129              -2.6997
        79                         -0.0904420              -2.4611
       ...                                ...                  ...
       144                          0.6980459              18.9948
      -------------------------------------------------------------
                  HL-Gap            0.0349344 Eh            0.9506 eV

Wiberg/Mayer (AO) data.
largest (>0.10) Wiberg bond orders for each atom

     #   Z sym  total        # sym  WBO       # sym  WBO       # sym  WBO
 ---------------------------------------------------------------------------
     1   6 C    3.924 --    26 H    0.986    27 H    0.982    28 H    0.979
                             2 O    0.940
     2   8 O    2.014 --     1 C    0.940     3 C    0.935
     3   6 C    3.806 --    13 C    1.523     4 N    1.002     2 O    0.935
     4   7 N    3.076 --     3 C    1.002     5 C    0.955    29 H    0.925
     5   6 C    3.975 --     6 C    1.004    30 H    0.980    31 H    0.974
                             4 N    0.955
     6   6 C    3.982 --     7 C    1.412    12 C    1.394     5 C    1.004
     7   6 C    3.994 --     8 C    1.445     6 C    1.412    32 H    0.972
                            11 C    0.108
     8   6 C    3.988 --     7 C    1.445     9 C    1.394    33 H    0.971
                            12 C    0.106
     9   6 C    3.850 --    11 C    1.404     8 C    1.394    10 F    0.910
    10   9 F    1.032 --     9 C    0.910
    11   6 C    3.992 --    12 C    1.443     9 C    1.404    34 H    0.971
                             7 C    0.108
    12   6 C    3.989 --    11 C    1.443     6 C    1.394    35 H    0.971
                             8 C    0.106
    13   6 C    3.950 --     3 C    1.523    24 C    1.163    14 N    1.072
    14   7 N    3.013 --    15 C    1.611    13 C    1.072    20 N    0.130
    15   6 C    3.943 --    14 N    1.611    20 N    1.181    16 C    0.968
    16   6 C    3.964 --    18 C    0.991    17 C    0.988    19 N    0.979
                            15 C    0.968
    17   6 C    3.995 --    16 C    0.988    38 H    0.986    36 H    0.985
                            37 H    0.980
    18   6 C    3.996 --    16 C    0.991    40 H    0.987    39 H    0.985
                            41 H    0.982
    19   7 N    2.978 --    16 C    0.979    42 H    0.947    43 H    0.947
    20   7 N    3.395 --    15 C    1.181    21 C    0.955    22 C    0.950
                            14 N    0.130
    21   6 C    3.956 --    45 H    0.981    44 H    0.981    46 H    0.976
                            20 N    0.955
    22   6 C    3.909 --    24 C    1.418    23 O    1.367    20 N    0.950
    23   8 O    1.725 --    22 C    1.367    24 C    0.135
    24   6 C    3.840 --    22 C    1.418    13 C    1.163    25 O    0.947
                            23 O    0.135
    25   8 O    1.943 --    24 C    0.947    47 H    0.849
    26   1 H    1.020 --     1 C    0.986
    27   1 H    1.017 --     1 C    0.982
    28   1 H    1.035 --     1 C    0.979
    29   1 H    0.982 --     4 N    0.925
    30   1 H    1.014 --     5 C    0.980
    31   1 H    1.022 --     5 C    0.974
    32   1 H    1.002 --     7 C    0.972
    33   1 H    1.000 --     8 C    0.971
    34   1 H    1.001 --    11 C    0.971
    35   1 H    1.011 --    12 C    0.971
    36   1 H    1.003 --    17 C    0.985
    37   1 H    1.008 --    17 C    0.980
    38   1 H    1.009 --    17 C    0.986
    39   1 H    1.012 --    18 C    0.985
    40   1 H    1.006 --    18 C    0.987
    41   1 H    1.024 --    18 C    0.982
    42   1 H    0.965 --    19 N    0.947
    43   1 H    0.962 --    19 N    0.947
    44   1 H    1.025 --    21 C    0.981
    45   1 H    1.024 --    21 C    0.981
    46   1 H    1.024 --    21 C    0.976
    47   1 H    0.894 --    25 O    0.849
 ---------------------------------------------------------------------------

           -------------------------------------------------
          | TOTAL ENERGY              -80.185613898044 Eh   |
          | GRADIENT NORM               0.000624952029 Eh/α |
          | HOMO-LUMO GAP               0.950612187545 eV   |
           -------------------------------------------------

 * finished run on 2023/06/20 at 15:02:49.543
