   * xtb version 6.5.1 (579679a) compiled by 'ehlert@majestix' on 2022-07-11
          program call               : /lustre/hpc/kemi/ree/PhD/git/ReactivityQM/dep/xtb-6.5.1/bin/xtb --gfn 1 /lustre/hpc/kemi/ree/PhD/git/ReactivityQM/calculations/R02/reac01prodE08/conf17/R02_reac01prodE08_conf17_gfn1.xyz --opt --vfukui --chrg -1 --uhf 0 --alpb DMSO

   ID    Z sym.   atoms
    1    6 C      1, 3, 5, 7-10, 12, 14, 15, 18, 19, 22, 24
    2    8 O      2, 4, 13, 20, 23, 25
    3    7 N      6, 11, 16, 17, 21
    4    1 H      26-43

      * Solvation model:               ALPB
        Solvent                        DMSO
        Solvent mass                       7.8130E+01 g/mol
          :  Hamiltonian                  GFN1-xTB          :
 * total energy  :   -83.8427498 Eh     change       -0.2657430E-11 Eh
 * total energy  :   -83.8554011 Eh     change       -0.1265128E-01 Eh
 * total energy  :   -83.8609524 Eh     change       -0.5551314E-02 Eh
 * total energy  :   -83.8620744 Eh     change       -0.1121998E-02 Eh
 * total energy  :   -83.8627745 Eh     change       -0.7000827E-03 Eh
 * total energy  :   -83.8630793 Eh     change       -0.3048367E-03 Eh
 * total energy  :   -83.8633310 Eh     change       -0.2516543E-03 Eh
 * total energy  :   -83.8635437 Eh     change       -0.2126905E-03 Eh
 * total energy  :   -83.8637587 Eh     change       -0.2150295E-03 Eh
 * total energy  :   -83.8639622 Eh     change       -0.2034976E-03 Eh
 * total energy  :   -83.8658946 Eh     change       -0.1299453E-04 Eh
 * total energy  :   -83.8659031 Eh     change       -0.8519969E-05 Eh
 * total energy  :   -83.8659122 Eh     change       -0.9087048E-05 Eh
 * total energy  :   -83.8659171 Eh     change       -0.4907789E-05 Eh
 * total energy  :   -83.8659248 Eh     change       -0.7646320E-05 Eh
 * total energy  :   -83.8659298 Eh     change       -0.5003242E-05 Eh
 * total energy  :   -83.8659444 Eh     change       -0.1464959E-04 Eh
 * total energy  :   -83.8659519 Eh     change       -0.7514194E-05 Eh
 * total energy  :   -83.8659554 Eh     change       -0.3500282E-05 Eh
   *** GEOMETRY OPTIMIZATION CONVERGED AFTER 45 ITERATIONS ***

 final structure:
================
43
 xtb: 6.5.1 (579679a)
C           -6.27005647750465       -1.00358819787201        1.45203829835041
O           -5.11402606554959       -0.17490870833689        1.31470129011720
C           -4.16042590590264       -0.64013079829464        0.46299704127455
O           -4.30079090311743       -1.69549472647157       -0.13101925654278
C           -2.99033403907225        0.23337489668102        0.34821590504058
N           -2.03359756267306       -0.25768383986693       -0.51615815080815
C           -0.94300228509948        0.40019575167496       -0.71184818407745
C            0.08149692711624       -0.13578877778574       -1.70440573366337
C           -0.43320032555917       -1.45089711575936       -2.29477304617617
C            0.30421119047787        0.88634971160498       -2.82915415600939
N            1.34116270495391       -0.42818810115507       -1.02379518076036
C            2.25348402729738        0.44331573580425       -0.58168794751297
O            2.11774870474268        1.66233437559533       -0.53222577524685
C            3.56238649093866       -0.28607665638901       -0.12252374901330
C            4.73870340954023        0.33782949621494       -0.88757414315726
N            3.43842225840306       -1.71228912070284       -0.36427496116151
N            3.50547624330280       -2.31055933417253        0.86095718239153
C            3.67289190593464       -1.41663652132059        1.76845639428434
C            3.80584031568950       -1.63503302403876        3.23311364754093
O            3.73083217489957       -0.12384171050550        1.28223098488373
N           -0.68590326789867        1.58118434725067       -0.08514788254076
C           -1.56605161410682        2.19167404783048        0.79699842115555
O           -1.27498946927349        3.26514494159260        1.32055320421361
C           -2.79018745090739        1.44309265497007        1.00134504283872
O           -3.66850680096254        2.02049614419291        1.85392686915979
H           -5.98625428665020       -1.99021784522013        1.82804587726583
H           -6.77042987710650       -1.11678867814709        0.48672146965094
H           -6.93131296969871       -0.50954266050193        2.16021262612542
H           -1.37498781229887       -1.27614805319480       -2.81216315893962
H            0.29110561470665       -1.84932377595358       -3.00266617734637
H           -0.60389363008199       -2.18071184468610       -1.50429264499333
H            0.67391166555685        1.83082010553424       -2.43514110999023
H            1.03018770703319        0.49441671230968       -3.53955494728497
H           -0.63658267047236        1.06511636283261       -3.34692398167999
H            1.69518544539532       -1.39414912224675       -1.04385010045637
H            4.74989079786354        1.41628272565034       -0.73722801613855
H            4.63166593554755        0.11884087245512       -1.94773887230284
H            5.67079738706223       -0.08999763573091       -0.52504372141845
H            4.73119655294669       -1.19218245036484        3.60321885609120
H            2.97530343962418       -1.17554473621984        3.77242599635057
H            3.81402904215200       -2.70325182218796        3.43837699819805
H            0.19763179107375        2.05659508332021       -0.25906347776339
H           -4.47902931832723        1.49526929160100        1.95371827004769

          :  Hamiltonian                  GFN1-xTB          :
         :: total energy             -83.865955447492 Eh    ::
         :: gradient norm              0.000546848544 Eh/a0 ::
         :: HOMO-LUMO gap              0.086743124713 eV    ::
         :: SCC energy               -84.620203687038 Eh    ::
         :: -> Gsolv                  -0.108201135546 Eh    ::
         :: repulsion energy           0.781188978012 Eh    ::

    * Orbital Energies and Occupations

         #    Occupation            Energy/Eh            Energy/eV
      -------------------------------------------------------------
         1        2.0000           -0.8216701             -22.3588
       ...           ...                  ...                  ...
        56        2.0000           -0.4781459             -13.0110
        57        2.0000           -0.4723663             -12.8537
        58        2.0000           -0.4620439             -12.5729
        59        2.0000           -0.4601010             -12.5200
        60        2.0000           -0.4404947             -11.9865
        61        2.0000           -0.4312964             -11.7362
        62        2.0000           -0.4280968             -11.6491
        63        2.0000           -0.4244962             -11.5511
        64        2.0000           -0.4227292             -11.5030
        65        2.0000           -0.4091859             -11.1345
        66        2.0000           -0.4066148             -11.0646
        67        2.0000           -0.3831168             -10.4251
        68        1.6852           -0.3091206              -8.4116 (HOMO)
        69        0.3148           -0.3059329              -8.3249 (LUMO)
        70                         -0.2595351              -7.0623
        71                         -0.2313290              -6.2948
        72                         -0.2172614              -5.9120
        73                         -0.1925723              -5.2402
        74                         -0.1350289              -3.6743
        75                         -0.1294580              -3.5227
        76                         -0.1197547              -3.2587
        77                         -0.1180415              -3.2121
        78                         -0.1158371              -3.1521
        79                         -0.1018826              -2.7724
       ...                                ...                  ...
       136                          0.7145844              19.4448
      -------------------------------------------------------------
                  HL-Gap            0.0031878 Eh            0.0867 eV

Wiberg/Mayer (AO) data.
largest (>0.10) Wiberg bond orders for each atom

     #   Z sym  total        # sym  WBO       # sym  WBO       # sym  WBO
 ---------------------------------------------------------------------------
     1   6 C    3.878 --    28 H    0.987    27 H    0.980    26 H    0.980
                             2 O    0.902
     2   8 O    2.155 --     3 C    1.036     1 C    0.902     4 O    0.113
     3   6 C    3.776 --     4 O    1.605     5 C    1.068     2 O    1.036
     4   8 O    1.840 --     3 C    1.605     2 O    0.113
     5   6 C    3.878 --    24 C    1.406     6 N    1.157     3 C    1.068
     6   7 N    3.013 --     7 C    1.597     5 C    1.157
     7   6 C    3.916 --     6 N    1.597    21 N    1.175     8 C    0.968
     8   6 C    3.947 --     9 C    1.001    10 C    0.983     7 C    0.968
                            11 N    0.927
     9   6 C    3.993 --     8 C    1.001    30 H    0.986    29 H    0.984
                            31 H    0.984
    10   6 C    3.991 --    34 H    0.986    33 H    0.984     8 C    0.983
                            32 H    0.979
    11   7 N    3.342 --    12 C    1.305     8 C    0.927    35 H    0.855
                            13 O    0.166
    12   6 C    3.851 --    13 O    1.569    11 N    1.305    14 C    0.885
    13   8 O    1.899 --    12 C    1.569    11 N    0.166
    14   6 C    3.893 --    16 N    1.019    15 C    0.968    20 O    0.913
                            12 C    0.885
    15   6 C    3.976 --    37 H    0.987    36 H    0.985    38 H    0.985
                            14 C    0.968
    16   7 N    2.510 --    17 N    1.185    14 C    1.019    18 C    0.112
    17   7 N    2.988 --    18 C    1.641    16 N    1.185
    18   6 C    3.778 --    17 N    1.641    19 C    1.021    20 O    0.978
                            16 N    0.112
    19   6 C    3.995 --    18 C    1.021    41 H    0.986    39 H    0.974
                            40 H    0.972
    20   8 O    2.078 --    18 C    0.978    14 C    0.913
    21   7 N    3.401 --     7 C    1.175    22 C    1.096    42 H    0.861
                            23 O    0.119
    22   6 C    3.868 --    23 O    1.544    24 C    1.115    21 N    1.096
    23   8 O    1.817 --    22 C    1.544    21 N    0.119
    24   6 C    3.800 --     5 C    1.406    22 C    1.115    25 O    1.070
    25   8 O    2.030 --    24 C    1.070    43 H    0.812
    26   1 H    1.010 --     1 C    0.980
    27   1 H    1.009 --     1 C    0.980
    28   1 H    1.012 --     1 C    0.987
    29   1 H    1.010 --     9 C    0.984
    30   1 H    1.001 --     9 C    0.986
    31   1 H    1.009 --     9 C    0.984
    32   1 H    1.011 --    10 C    0.979
    33   1 H    1.002 --    10 C    0.984
    34   1 H    1.003 --    10 C    0.986
    35   1 H    0.975 --    11 N    0.855
    36   1 H    1.009 --    15 C    0.985
    37   1 H    1.009 --    15 C    0.987
    38   1 H    1.011 --    15 C    0.985
    39   1 H    1.002 --    19 C    0.974
    40   1 H    1.002 --    19 C    0.972
    41   1 H    1.007 --    19 C    0.986
    42   1 H    0.947 --    21 N    0.861
    43   1 H    0.866 --    25 O    0.812
 ---------------------------------------------------------------------------

           -------------------------------------------------
          | TOTAL ENERGY              -83.865955447492 Eh   |
          | GRADIENT NORM               0.000546848544 Eh/α |
          | HOMO-LUMO GAP               0.086743124713 eV   |
           -------------------------------------------------

 * finished run on 2023/06/20 at 15:06:37.609
