   * xtb version 6.5.1 (579679a) compiled by 'ehlert@majestix' on 2022-07-11
          program call               : /lustre/hpc/kemi/ree/PhD/git/ReactivityQM/dep/xtb-6.5.1/bin/xtb --gfn 1 /lustre/hpc/kemi/ree/PhD/git/ReactivityQM/calculations/R03/reac02prodN04/conf18/R03_reac02prodN04_conf18_gfn1.xyz --opt --vfukui --chrg 1 --uhf 0 --alpb DMSO

   ID    Z sym.   atoms
    1    6 C      1, 3, 5, 7-10, 12, 14, 17, 18, 21, 22, 24, 26
    2    8 O      2, 4, 13, 19, 23, 25
    3    7 N      6, 11, 15, 16, 20
    4    1 H      27-46

      * Solvation model:               ALPB
        Solvent                        DMSO
        Solvent mass                       7.8130E+01 g/mol
          :  Hamiltonian                  GFN1-xTB          :
 * total energy  :   -86.2946283 Eh     change       -0.1195133E-10 Eh
 * total energy  :   -86.3109851 Eh     change       -0.1635677E-01 Eh
 * total energy  :   -86.3187720 Eh     change       -0.7786936E-02 Eh
 * total energy  :   -86.3216649 Eh     change       -0.2892920E-02 Eh
 * total energy  :   -86.3248253 Eh     change       -0.3160367E-02 Eh
 * total energy  :   -86.3269022 Eh     change       -0.2076905E-02 Eh
 * total energy  :   -86.3291286 Eh     change       -0.2226411E-02 Eh
 * total energy  :   -86.3329250 Eh     change       -0.3796341E-02 Eh
 * total energy  :   -86.3358866 Eh     change       -0.2961588E-02 Eh
 * total energy  :   -86.3345088 Eh     change        0.1377765E-02 Eh
 * total energy  :   -86.3480420 Eh     change       -0.6416808E-04 Eh
 * total energy  :   -86.3481059 Eh     change       -0.6394502E-04 Eh
 * total energy  :   -86.3481645 Eh     change       -0.5857279E-04 Eh
 * total energy  :   -86.3482061 Eh     change       -0.4160675E-04 Eh
 * total energy  :   -86.3482274 Eh     change       -0.2129105E-04 Eh
 * total energy  :   -86.3482197 Eh     change        0.7696973E-05 Eh
 * total energy  :   -86.3482410 Eh     change       -0.2126785E-04 Eh
 * total energy  :   -86.3482471 Eh     change       -0.6126921E-05 Eh
 * total energy  :   -86.3482504 Eh     change       -0.3330144E-05 Eh
   *** GEOMETRY OPTIMIZATION CONVERGED AFTER 40 ITERATIONS ***

 final structure:
================
46
 xtb: 6.5.1 (579679a)
C           -4.83546141072192       -1.90701453679487       -2.12990804579961
O           -3.72452486646272       -1.38075521907670       -1.37862064416678
C           -3.66337729243261       -0.12687813515189       -1.12603019605017
O           -4.61675257030554        0.62753398712618       -1.56035940667597
C           -2.53302893504756        0.36280050116999       -0.37206879615029
N           -1.61750293571024       -0.58643360945010       -0.02287297304005
C           -0.55646179894782       -0.27250914649479        0.65069073663247
C            0.35214141524865       -1.43678639429009        1.02109474612499
C            0.18495722330635       -1.73297893423819        2.52015962698461
C           -0.04090506682259       -2.67284372291516        0.19901140189627
N            1.73396292326361       -1.08003975425849        0.68932844916011
C            2.78840210184969       -1.88686438239818        0.97316461359144
O            2.73881896927273       -2.90733498083181        1.63430407722090
C            4.05662451990750       -1.36998722290511        0.40724235735840
N            5.23375045702851       -1.90752937207546        0.47851878048781
N            6.08518412974239       -1.08075833891905       -0.18800240574060
C            5.37692475329455       -0.08698434740757       -0.62580509851805
C            5.83928415925317        1.08201347357714       -1.40406506488377
O            4.08276571768142       -0.20864618689808       -0.28388933074134
N           -0.32081408593011        1.01531544283098        1.04954913400349
C            0.84266146964652        1.46334794928257        1.82598856996613
C           -1.18014746237286        2.06688088630449        0.75445772121400
O           -0.92158663519838        3.19589969833708        1.13394092047482
C           -2.36924854115205        1.69105098848413       -0.01629720441967
O           -3.29461690721271        2.57122744222931       -0.37790178626303
C           -3.22712598336569        3.97323252469735       -0.04663574837077
H           -4.88044419401610       -1.41498981814585       -3.10182114008471
H           -5.75957660722141       -1.72628580590192       -1.58009646937668
H           -4.64573938762762       -2.97233095424998       -2.23773463407881
H           -0.87554223422710       -1.84488735181855        2.74011882300837
H            0.58696786067791       -0.92745463482391        3.12947895388408
H            0.69791966918480       -2.65832334980262        2.77589082252309
H            0.03411890186971       -2.45232638431433       -0.86401151825205
H           -1.06485571437339       -2.96022007416127        0.42857592036999
H            0.62634654024489       -3.49749641037972        0.44462606661129
H            1.86612832435850       -0.37353567298718       -0.01483347395048
H            5.77463969327630        1.98263099920656       -0.79332957841987
H            5.20295515216324        1.22210905361041       -2.27654503839754
H            6.86998194880658        0.93140064349174       -1.71676785976498
H            0.48165255776058        1.90601675646223        2.75397682670862
H            1.35971915312342        2.22691700630849        1.24597518363886
H            1.51061613956631        0.63824815853412        2.03447119562080
H           -4.51448730270987        1.58044147282413       -1.34436974369363
H           -4.12545641740787        4.40983990578346       -0.47860726094262
H           -2.33586159927141        4.42115708429564       -0.48632601238024
H           -3.22300483198994        4.10412976613673        1.03579750267733

          :  Hamiltonian                  GFN1-xTB          :
         :: total energy             -86.348250413143 Eh    ::
         :: gradient norm              0.000586111835 Eh/a0 ::
         :: HOMO-LUMO gap              1.906427830229 eV    ::
         :: SCC energy               -87.178197869125 Eh    ::
         :: -> Gsolv                  -0.114044268642 Eh    ::
         :: repulsion energy           0.858639119738 Eh    ::

    * Orbital Energies and Occupations

         #    Occupation            Energy/Eh            Energy/eV
      -------------------------------------------------------------
         1        2.0000           -0.9115842             -24.8055
       ...           ...                  ...                  ...
        58        2.0000           -0.5250159             -14.2864
        59        2.0000           -0.5171179             -14.0715
        60        2.0000           -0.5117877             -13.9265
        61        2.0000           -0.5095026             -13.8643
        62        2.0000           -0.5011801             -13.6378
        63        2.0000           -0.4865416             -13.2395
        64        2.0000           -0.4834028             -13.1541
        65        2.0000           -0.4792382             -13.0407
        66        2.0000           -0.4722281             -12.8500
        67        2.0000           -0.4660342             -12.6814
        68        2.0000           -0.4584764             -12.4758
        69        2.0000           -0.4567751             -12.4295
        70        2.0000           -0.4535145             -12.3408 (HOMO)
        71                         -0.3834545             -10.4343 (LUMO)
        72                         -0.3180222              -8.6538
        73                         -0.3156776              -8.5900
        74                         -0.2900040              -7.8914
        75                         -0.2605012              -7.0886
        76                         -0.2054674              -5.5911
        77                         -0.1988788              -5.4118
        78                         -0.1656208              -4.5068
        79                         -0.1486124              -4.0439
        80                         -0.1459698              -3.9720
        81                         -0.1439718              -3.9177
       ...                                ...                  ...
       144                          0.7262535              19.7624
      -------------------------------------------------------------
                  HL-Gap            0.0700599 Eh            1.9064 eV

Wiberg/Mayer (AO) data.
largest (>0.10) Wiberg bond orders for each atom

     #   Z sym  total        # sym  WBO       # sym  WBO       # sym  WBO
 ---------------------------------------------------------------------------
     1   6 C    3.820 --    29 H    0.982    27 H    0.972    28 H    0.972
                             2 O    0.852
     2   8 O    2.318 --     3 C    1.286     1 C    0.852
     3   6 C    3.811 --     2 O    1.286     4 O    1.250     5 C    1.121
     4   8 O    2.195 --     3 C    1.250    43 H    0.745
     5   6 C    3.958 --    24 C    1.398     6 N    1.179     3 C    1.121
     6   7 N    3.028 --     7 C    1.561     5 C    1.179
     7   6 C    3.921 --     6 N    1.561    20 N    1.182     8 C    0.977
     8   6 C    3.933 --    10 C    0.989     7 C    0.977     9 C    0.977
                            11 N    0.927
     9   6 C    3.985 --    30 H    0.984    31 H    0.981     8 C    0.977
                            32 H    0.975
    10   6 C    3.987 --     8 C    0.989    33 H    0.985    34 H    0.984
                            35 H    0.981
    11   7 N    3.331 --    12 C    1.226     8 C    0.927    36 H    0.894
                            13 O    0.169
    12   6 C    3.913 --    13 O    1.603    11 N    1.226    14 C    0.997
    13   8 O    1.917 --    12 C    1.603    11 N    0.169
    14   6 C    3.874 --    15 N    1.621    19 O    1.045    12 C    0.997
    15   7 N    3.002 --    14 C    1.621    16 N    1.201
    16   7 N    2.983 --    17 C    1.608    15 N    1.201
    17   6 C    3.867 --    16 N    1.608    19 O    1.071    18 C    1.032
    18   6 C    3.985 --    17 C    1.032    39 H    0.981    38 H    0.966
                            37 H    0.959
    19   8 O    2.314 --    17 C    1.071    14 C    1.045
    20   7 N    3.523 --     7 C    1.182    22 C    1.127    21 C    0.918
                            23 O    0.143
    21   6 C    3.905 --    42 H    0.976    40 H    0.971    41 H    0.971
                            20 N    0.918
    22   6 C    3.919 --    23 O    1.594    20 N    1.127    24 C    1.054
    23   8 O    1.940 --    22 C    1.594    20 N    0.143
    24   6 C    3.908 --     5 C    1.398    25 O    1.135    22 C    1.054
    25   8 O    2.249 --    24 C    1.135    26 C    0.855
    26   6 C    3.829 --    44 H    0.983    46 H    0.974    45 H    0.974
                            25 O    0.855
    27   1 H    0.997 --     1 C    0.972
    28   1 H    0.996 --     1 C    0.972
    29   1 H    1.002 --     1 C    0.982
    30   1 H    1.001 --     9 C    0.984
    31   1 H    1.000 --     9 C    0.981
    32   1 H    1.009 --     9 C    0.975
    33   1 H    1.005 --    10 C    0.985
    34   1 H    1.010 --    10 C    0.984
    35   1 H    1.005 --    10 C    0.981
    36   1 H    0.937 --    11 N    0.894
    37   1 H    0.996 --    18 C    0.959
    38   1 H    0.996 --    18 C    0.966
    39   1 H    0.998 --    18 C    0.981
    40   1 H    1.000 --    21 C    0.971
    41   1 H    0.999 --    21 C    0.971
    42   1 H    1.008 --    21 C    0.976
    43   1 H    0.807 --     4 O    0.745
    44   1 H    1.005 --    26 C    0.983
    45   1 H    1.008 --    26 C    0.974
    46   1 H    1.008 --    26 C    0.974
 ---------------------------------------------------------------------------

           -------------------------------------------------
          | TOTAL ENERGY              -86.348250413143 Eh   |
          | GRADIENT NORM               0.000586111835 Eh/α |
          | HOMO-LUMO GAP               1.906427830229 eV   |
           -------------------------------------------------

 * finished run on 2023/06/20 at 15:39:03.658
