   * xtb version 6.5.1 (579679a) compiled by 'ehlert@majestix' on 2022-07-11
          program call               : /lustre/hpc/kemi/ree/PhD/git/ReactivityQM/dep/xtb-6.5.1/bin/xtb --gfn 1 /lustre/hpc/kemi/ree/PhD/git/ReactivityQM/calculations/R02methylcation/reac01prodN12/conf15/R02methylcation_reac01prodN12_conf15_gfn1.xyz --opt --vfukui --chrg 0 --uhf 0 --alpb DMSO

   ID    Z sym.   atoms
    1    6 C      1, 3, 5, 7-10, 12, 14, 15, 18, 19, 22, 24
    2    8 O      2, 4, 13, 20, 23, 25
    3    7 N      6, 11, 16, 17, 21
    4    1 H      26-42

      * Solvation model:               ALPB
        Solvent                        DMSO
        Solvent mass                       7.8130E+01 g/mol
          :  Hamiltonian                  GFN1-xTB          :
 * total energy  :   -82.9338932 Eh     change       -0.2946479E-09 Eh
 * total energy  :   -82.9445339 Eh     change       -0.1064069E-01 Eh
 * total energy  :   -82.9486142 Eh     change       -0.4080339E-02 Eh
 * total energy  :   -82.9492659 Eh     change       -0.6516331E-03 Eh
 * total energy  :   -82.9496995 Eh     change       -0.4336769E-03 Eh
 * total energy  :   -82.9498803 Eh     change       -0.1807479E-03 Eh
 * total energy  :   -82.9500207 Eh     change       -0.1404555E-03 Eh
 * total energy  :   -82.9501343 Eh     change       -0.1135598E-03 Eh
 * total energy  :   -82.9502516 Eh     change       -0.1172929E-03 Eh
 * total energy  :   -82.9503601 Eh     change       -0.1085144E-03 Eh
 * total energy  :   -82.9508569 Eh     change       -0.3022533E-04 Eh
 * total energy  :   -82.9508784 Eh     change       -0.2150569E-04 Eh
 * total energy  :   -82.9508914 Eh     change       -0.1297410E-04 Eh
 * total energy  :   -82.9509078 Eh     change       -0.1641856E-04 Eh
 * total energy  :   -82.9509144 Eh     change       -0.6548169E-05 Eh
 * total energy  :   -82.9509277 Eh     change       -0.1334303E-04 Eh
 * total energy  :   -82.9509333 Eh     change       -0.5526809E-05 Eh
 * total energy  :   -82.9509390 Eh     change       -0.5770130E-05 Eh
 * total energy  :   -82.9509439 Eh     change       -0.4838690E-05 Eh
   *** GEOMETRY OPTIMIZATION CONVERGED AFTER 28 ITERATIONS ***

 final structure:
================
42
 xtb: 6.5.1 (579679a)
C            6.05709183902568        2.60109094855802       -0.34738839885163
O            5.08739737214160        1.80975260745172        0.33719808273307
C            4.06393983114431        1.36066867459057       -0.39857922175163
O            3.95295755287100        1.61694670969410       -1.58254247070846
C            3.09900599707741        0.52565486236336        0.34973145603563
N            2.09168574029453        0.05221281940079       -0.42534190438173
C            1.17228209553015       -0.72150830432547        0.06492381265794
C            0.09382820020142       -1.25291268217706       -0.85801270742200
C            0.34041325793044       -0.73776880565583       -2.27639449448935
C            0.05817399569659       -2.78456542491983       -0.84865684960903
N           -1.22856922726146       -0.71172375021783       -0.44822692434225
C           -1.91634608276433       -1.10418067221965        0.61397729567658
O           -1.56183183528450       -1.85553107069311        1.49696018111320
C           -3.35995213618851       -0.47726287077099        0.71511706794897
C           -4.36458008419757       -1.62229890355480        0.84834139541769
N           -3.36268216962172        0.40603740948819        1.83388209757997
N           -3.62936847648551        1.60145590920415        1.41922006584792
C           -3.81966871820598        1.55897555368543        0.09950778551984
C           -4.16445629754438        2.69712953483744       -0.76324453829502
O           -3.66415319585244        0.34867504081655       -0.38928656749287
N            1.17328647296481       -1.09154820559549        1.37428320349509
C            2.10190465195000       -0.65938642356330        2.29890318991970
O            2.01294737681691       -1.00418312336118        3.46475249858722
C            3.19588646374061        0.23428290699270        1.75151138640017
O            4.07263165023077        0.64492985641392        2.51452554241083
H            6.79249045164003        2.90959787029930        0.39351825985577
H            6.53836602034365        2.01315995625590       -1.13304746999342
H            5.58355261781221        3.47729481911471       -0.79710600930849
H            0.35338966507004        0.35103888593161       -2.28579570965097
H            1.30364798497238       -1.09935495253927       -2.63279054495842
H           -0.44286060982950       -1.09461899972010       -2.94119451595623
H            1.00654756676117       -3.16528338417636       -1.22494174056338
H           -0.10469366156716       -3.17437565459165        0.15338800007725
H           -0.74503773137710       -3.13193119077009       -1.49546309340300
H           -1.69621129053514       -0.14278744908286       -1.13497958337010
H           -4.07185768771403       -2.24726957248434        1.68962831003582
H           -5.35634601205441       -1.20894487267548        1.01378710826908
H           -4.36154112890139       -2.20745396917907       -0.06779096286114
H           -3.31168648555437        3.37486663200667       -0.83727093810380
H           -4.98986316947005        3.25553922321491       -0.32122720741893
H           -4.43371470697186        2.34796081962494       -1.75676290987568
H            0.43399290316418       -1.69238175767141        1.72027802322561

          :  Hamiltonian                  GFN1-xTB          :
         :: total energy             -82.950943860494 Eh    ::
         :: gradient norm              0.000797352316 Eh/a0 ::
         :: HOMO-LUMO gap              0.083131592542 eV    ::
         :: SCC energy               -83.719301513371 Eh    ::
         :: -> Gsolv                  -0.080127147139 Eh    ::
         :: repulsion energy           0.794811675722 Eh    ::

    * Orbital Energies and Occupations

         #    Occupation            Energy/Eh            Energy/eV
      -------------------------------------------------------------
         1        2.0000           -0.8911541             -24.2495
       ...           ...                  ...                  ...
        55        2.0000           -0.5142939             -13.9946
        56        2.0000           -0.5077508             -13.8166
        57        2.0000           -0.5068930             -13.7933
        58        2.0000           -0.4944117             -13.4536
        59        2.0000           -0.4875000             -13.2656
        60        2.0000           -0.4867870             -13.2461
        61        2.0000           -0.4788991             -13.0315
        62        2.0000           -0.4759374             -12.9509
        63        2.0000           -0.4728058             -12.8657
        64        2.0000           -0.4672484             -12.7145
        65        2.0000           -0.4512616             -12.2795
        66        2.0000           -0.4147413             -11.2857
        67        1.6662           -0.4002397             -10.8911 (HOMO)
        68        0.3338           -0.3971847             -10.8079 (LUMO)
        69                         -0.3017014              -8.2097
        70                         -0.2925850              -7.9616
        71                         -0.2798336              -7.6147
        72                         -0.2762912              -7.5183
        73                         -0.2276742              -6.1953
        74                         -0.1592738              -4.3341
        75                         -0.1479109              -4.0249
        76                         -0.1407530              -3.8301
        77                         -0.1333669              -3.6291
        78                         -0.1324145              -3.6032
       ...                                ...                  ...
       134                          0.7462189              20.3057
      -------------------------------------------------------------
                  HL-Gap            0.0030550 Eh            0.0831 eV

Wiberg/Mayer (AO) data.
largest (>0.10) Wiberg bond orders for each atom

     #   Z sym  total        # sym  WBO       # sym  WBO       # sym  WBO
 ---------------------------------------------------------------------------
     1   6 C    3.880 --    26 H    0.986    28 H    0.979    27 H    0.979
                             2 O    0.906
     2   8 O    2.186 --     3 C    1.097     1 C    0.906     4 O    0.127
     3   6 C    3.841 --     4 O    1.623     2 O    1.097     5 C    1.038
     4   8 O    1.870 --     3 C    1.623     2 O    0.127
     5   6 C    3.743 --     6 N    1.265    24 C    1.186     3 C    1.038
     6   7 N    2.995 --     7 C    1.507     5 C    1.265
     7   6 C    3.833 --     6 N    1.507    21 N    1.178     8 C    0.978
     8   6 C    3.918 --     9 C    1.001    10 C    0.986     7 C    0.978
                            11 N    0.885
     9   6 C    3.987 --     8 C    1.001    31 H    0.984    29 H    0.982
                            30 H    0.981
    10   6 C    3.983 --     8 C    0.986    32 H    0.983    34 H    0.983
                            33 H    0.978
    11   7 N    3.364 --    12 C    1.339    35 H    0.887     8 C    0.885
                            13 O    0.175
    12   6 C    3.878 --    13 O    1.608    11 N    1.339    14 C    0.821
    13   8 O    1.971 --    12 C    1.608    11 N    0.175
    14   6 C    3.846 --    16 N    1.055    15 C    0.932    20 O    0.903
                            12 C    0.821
    15   6 C    3.934 --    38 H    0.981    37 H    0.980    36 H    0.978
                            14 C    0.932
    16   7 N    2.705 --    17 N    1.477    14 C    1.055
    17   7 N    2.965 --    16 N    1.477    18 C    1.343
    18   6 C    3.684 --    17 N    1.343    20 O    1.167    19 C    1.053
    19   6 C    3.971 --    18 C    1.053    41 H    0.977    40 H    0.951
                            39 H    0.937
    20   8 O    2.240 --    18 C    1.167    14 C    0.903
    21   7 N    3.430 --     7 C    1.178    22 C    1.126    42 H    0.863
                            23 O    0.117
    22   6 C    3.849 --    23 O    1.631    21 N    1.126    24 C    0.953
    23   8 O    1.862 --    22 C    1.631    21 N    0.117
    24   6 C    3.880 --    25 O    1.591     5 C    1.186    22 C    0.953
    25   8 O    1.787 --    24 C    1.591
    26   1 H    1.012 --     1 C    0.986
    27   1 H    1.008 --     1 C    0.979
    28   1 H    1.009 --     1 C    0.979
    29   1 H    1.006 --     9 C    0.982
    30   1 H    1.005 --     9 C    0.981
    31   1 H    0.998 --     9 C    0.984
    32   1 H    0.999 --    10 C    0.983
    33   1 H    1.004 --    10 C    0.978
    34   1 H    0.998 --    10 C    0.983
    35   1 H    0.934 --    11 N    0.887
    36   1 H    1.001 --    15 C    0.978
    37   1 H    0.994 --    15 C    0.980
    38   1 H    0.995 --    15 C    0.981
    39   1 H    0.978 --    19 C    0.937
    40   1 H    0.984 --    19 C    0.951
    41   1 H    0.991 --    19 C    0.977
    42   1 H    0.938 --    21 N    0.863
 ---------------------------------------------------------------------------

           -------------------------------------------------
          | TOTAL ENERGY              -82.950943860494 Eh   |
          | GRADIENT NORM               0.000797352316 Eh/α |
          | HOMO-LUMO GAP               0.083131592542 eV   |
           -------------------------------------------------

 * finished run on 2023/06/21 at 17:44:27.212
