   * xtb version 6.5.1 (579679a) compiled by 'ehlert@majestix' on 2022-07-11
          program call               : /lustre/hpc/kemi/ree/PhD/git/ReactivityQM/dep/xtb-6.5.1/bin/xtb --gfn 1 /lustre/hpc/kemi/ree/PhD/git/ReactivityQM/calculations/R01/reac01prodN07/conf02/R01_reac01prodN07_conf02_gfn1.xyz --opt --vfukui --chrg 1 --uhf 0 --alpb DMSO

   ID    Z sym.   atoms
    1    6 C      1, 3, 5, 8-10
    2    8 O      2, 4, 11
    3    7 N      6, 7
    4    1 H      12-20

      * Solvation model:               ALPB
        Solvent                        DMSO
        Solvent mass                       7.8130E+01 g/mol
          :  Hamiltonian                  GFN1-xTB          :
 * total energy  :   -37.5560925 Eh     change       -0.3623768E-11 Eh
 * total energy  :   -37.5687563 Eh     change       -0.1266378E-01 Eh
 * total energy  :   -37.5735674 Eh     change       -0.4811072E-02 Eh
 * total energy  :   -37.5742334 Eh     change       -0.6660292E-03 Eh
 * total energy  :   -37.5745928 Eh     change       -0.3593619E-03 Eh
 * total energy  :   -37.5746438 Eh     change       -0.5106020E-04 Eh
 * total energy  :   -37.5746799 Eh     change       -0.3601903E-04 Eh
 * total energy  :   -37.5747004 Eh     change       -0.2058135E-04 Eh
 * total energy  :   -37.5747121 Eh     change       -0.1170584E-04 Eh
 * total energy  :   -37.5747176 Eh     change       -0.5479791E-05 Eh
 * total energy  :   -37.5747189 Eh     change       -0.1323368E-05 Eh
   *** GEOMETRY OPTIMIZATION CONVERGED AFTER 11 ITERATIONS ***

 final structure:
================
20
 xtb: 6.5.1 (579679a)
C            4.12303967775212       -0.34085664270305       -0.23170290762330
O            2.75895309787257        0.09305363920816       -0.40893730562577
C            1.82427878817214       -0.61915036054008        0.15168390241734
O            1.93652638325289       -1.60872223014029        0.80896224523646
C            0.45367881319581        0.00426249975559       -0.14925034209971
N            0.23154121502333        1.15574999690795       -0.87098792323710
N           -1.01328899415979        1.34476254732467       -0.89638347702119
C           -1.68609281185150        0.32003425974726       -0.18406663187500
C           -2.61222522969082       -0.48541536010335       -1.10918844265649
C           -2.43684268860355        0.89498974956804        1.02821492259307
O           -0.62226556986280       -0.51047806621209        0.26565991970162
H            4.38340465291786       -0.28183365620957        0.82590190345548
H            4.73272406807255        0.33721948173432       -0.82334352939648
H            4.22357016262150       -1.36934095814771       -0.58076234057775
H           -3.03715809908374       -1.30926385290150       -0.54063881149366
H           -3.40091414806327        0.17103561650884       -1.46800019635892
H           -2.03356101500002       -0.86982534262878       -1.94631118117701
H           -2.87342944436222        0.07095924415637        1.58740935827309
H           -1.73527400122047        1.44130663610010        1.65490321833439
H           -3.21666485698251        1.56151279857495        0.66866361913088

          :  Hamiltonian                  GFN1-xTB          :
         :: total energy             -37.574718943087 Eh    ::
         :: gradient norm              0.000341899677 Eh/a0 ::
         :: HOMO-LUMO gap              1.771248226249 eV    ::
         :: SCC energy               -37.910573327900 Eh    ::
         :: -> Gsolv                  -0.081284177559 Eh    ::
         :: repulsion energy           0.344273560538 Eh    ::

    * Orbital Energies and Occupations

         #    Occupation            Energy/Eh            Energy/eV
      -------------------------------------------------------------
         1        2.0000           -0.9571882             -26.0464
       ...           ...                  ...                  ...
        18        2.0000           -0.6146489             -16.7254
        19        2.0000           -0.6120971             -16.6560
        20        2.0000           -0.6110836             -16.6284
        21        2.0000           -0.5875151             -15.9871
        22        2.0000           -0.5858371             -15.9414
        23        2.0000           -0.5797736             -15.7764
        24        2.0000           -0.5749782             -15.6460
        25        2.0000           -0.5683638             -15.4660
        26        2.0000           -0.5556343             -15.1196
        27        2.0000           -0.5529865             -15.0475
        28        2.0000           -0.5429440             -14.7743
        29        2.0000           -0.5362980             -14.5934
        30        2.0000           -0.5246395             -14.2762 (HOMO)
        31                         -0.4595473             -12.5049 (LUMO)
        32                         -0.3774620             -10.2713
        33                         -0.2805727              -7.6348
        34                         -0.1700115              -4.6262
        35                         -0.1641747              -4.4674
        36                         -0.1607319              -4.3737
        37                         -0.1201420              -3.2692
        38                         -0.1122110              -3.0534
        39                         -0.0986231              -2.6837
        40                         -0.0958239              -2.6075
        41                         -0.0933764              -2.5409
       ...                                ...                  ...
        62                          0.7399399              20.1348
      -------------------------------------------------------------
                  HL-Gap            0.0650922 Eh            1.7712 eV

Wiberg/Mayer (AO) data.
largest (>0.10) Wiberg bond orders for each atom

     #   Z sym  total        # sym  WBO       # sym  WBO       # sym  WBO
 ---------------------------------------------------------------------------
     1   6 C    3.819 --    13 H    0.983    14 H    0.972    12 H    0.971
                             2 O    0.854
     2   8 O    2.261 --     3 C    1.194     1 C    0.854     4 O    0.173
     3   6 C    3.881 --     4 O    1.721     2 O    1.194     5 C    0.896
     4   8 O    2.013 --     3 C    1.721     2 O    0.173
     5   6 C    3.788 --    11 O    1.393     6 N    1.199     3 C    0.896
     6   7 N    3.022 --     7 N    1.678     5 C    1.199
     7   7 N    2.995 --     6 N    1.678     8 C    1.074
     8   6 C    3.813 --     7 N    1.074     9 C    0.885    10 C    0.883
                            11 O    0.868
     9   6 C    3.942 --    17 H    0.978    16 H    0.975    15 H    0.974
                             8 C    0.885
    10   6 C    3.942 --    19 H    0.978    20 H    0.975    18 H    0.974
                             8 C    0.883
    11   8 O    2.442 --     5 C    1.393     8 C    0.868
    12   1 H    0.995 --     1 C    0.971
    13   1 H    1.002 --     1 C    0.983
    14   1 H    0.996 --     1 C    0.972
    15   1 H    0.989 --     9 C    0.974
    16   1 H    0.989 --     9 C    0.975
    17   1 H    0.989 --     9 C    0.978
    18   1 H    0.989 --    10 C    0.974
    19   1 H    0.989 --    10 C    0.978
    20   1 H    0.989 --    10 C    0.975
 ---------------------------------------------------------------------------

           -------------------------------------------------
          | TOTAL ENERGY              -37.574718943087 Eh   |
          | GRADIENT NORM               0.000341899677 Eh/α |
          | HOMO-LUMO GAP               1.771248226249 eV   |
           -------------------------------------------------

 * finished run on 2023/06/20 at 14:56:43.763
