   * xtb version 6.5.1 (579679a) compiled by 'ehlert@majestix' on 2022-07-11
          program call               : /lustre/hpc/kemi/ree/PhD/git/ReactivityQM/dep/xtb-6.5.1/bin/xtb --gfn 1 /lustre/hpc/kemi/ree/PhD/git/ReactivityQM/calculations/R02deprot/reac01prodN14/conf06/R02deprot_reac01prodN14_conf06_gfn1.xyz --opt --vfukui --chrg 0 --uhf 0 --alpb DMSO

   ID    Z sym.   atoms
    1    6 C      1, 3, 5, 7-10, 12, 14, 17-19, 22, 24
    2    8 O      2, 4, 13, 20, 23, 25
    3    7 N      6, 11, 15, 16, 21
    4    1 H      26-42

      * Solvation model:               ALPB
        Solvent                        DMSO
        Solvent mass                       7.8130E+01 g/mol
          :  Hamiltonian                  GFN1-xTB          :
 * total energy  :   -82.9103649 Eh     change       -0.1766409E-10 Eh
 * total energy  :   -82.9226028 Eh     change       -0.1223787E-01 Eh
 * total energy  :   -82.9267991 Eh     change       -0.4196311E-02 Eh
 * total energy  :   -82.9274080 Eh     change       -0.6089292E-03 Eh
 * total energy  :   -82.9277547 Eh     change       -0.3467532E-03 Eh
 * total energy  :   -82.9279304 Eh     change       -0.1756177E-03 Eh
 * total energy  :   -82.9281257 Eh     change       -0.1953607E-03 Eh
 * total energy  :   -82.9283033 Eh     change       -0.1775320E-03 Eh
 * total energy  :   -82.9284439 Eh     change       -0.1406823E-03 Eh
 * total energy  :   -82.9285509 Eh     change       -0.1069995E-03 Eh
 * total energy  :   -82.9309470 Eh     change       -0.1312410E-04 Eh
 * total energy  :   -82.9309587 Eh     change       -0.1167502E-04 Eh
 * total energy  :   -82.9309697 Eh     change       -0.1103206E-04 Eh
 * total energy  :   -82.9309814 Eh     change       -0.1170510E-04 Eh
 * total energy  :   -82.9309940 Eh     change       -0.1262913E-04 Eh
 * total energy  :   -82.9310064 Eh     change       -0.1233465E-04 Eh
 * total energy  :   -82.9310179 Eh     change       -0.1151463E-04 Eh
 * total energy  :   -82.9310289 Eh     change       -0.1103773E-04 Eh
 * total energy  :   -82.9310326 Eh     change       -0.3623705E-05 Eh
   *** GEOMETRY OPTIMIZATION CONVERGED AFTER 68 ITERATIONS ***

 final structure:
================
42
 xtb: 6.5.1 (579679a)
C           -7.37019000596861        0.02116781901481        0.33107834160233
O           -6.05327463384957        0.42954218642194       -0.04758902004382
C           -5.05856339392786       -0.39269654828846        0.28004403582235
O           -5.22869727566553       -1.43991715426631        0.86211573808436
C           -3.71366059543115        0.11425711058320       -0.13309182083528
N           -2.67916106037718       -0.65929145882912        0.24844425445212
C           -1.44015776504800       -0.26028148322536       -0.03939580831300
C           -0.33514525841976       -1.18806246566713        0.42857620665009
C           -0.52009298924577       -1.51250131566777        1.91635989773010
C           -0.36949058607246       -2.46799846458196       -0.42074501940807
N            0.92929534686649       -0.48815520415993        0.22129706636714
C            2.13292679495978       -0.99238188872211        0.52296458058693
O            2.36499018181339       -2.08840782410953        1.00111444484112
C            3.21368500786049       -0.01084057893315        0.20142816086089
N            3.00240096995641        1.21163483370948       -0.33345568249516
N            4.13167621997429        1.79374071423669       -0.47202474794108
C            5.17511278672122        0.92263290153031       -0.00303558504016
C            6.13430569406537        0.56942539177164       -1.14221780114519
C            5.89534541387100        1.55051361202912        1.19349040887296
O            4.47387820200063       -0.24755977245829        0.41908431237173
N           -1.09165617936427        0.83575973281191       -0.68139945610563
C           -2.07361820710937        1.66971675630882       -1.13460108495182
O           -1.86576510479250        2.70604919447638       -1.76846715443837
C           -3.46478541474594        1.28250788367190       -0.83327193394598
O           -4.40039089104465        2.11059371102144       -1.28358041368225
H           -8.04889503056836        0.79780680548067       -0.01510501851447
H           -7.43342848837472       -0.08137331123810        1.41713944963644
H           -7.61649024333146       -0.93500099160642       -0.13686507663790
H           -1.51527849080202       -1.92980053324138        2.06407526832386
H           -0.42274506815611       -0.60409164400127        2.50861654070466
H            0.22535857155910       -2.23483122079576        2.24278040573651
H           -1.35559607313803       -2.92222507239532       -0.33627548902635
H            0.38217537774536       -3.17268118782954       -0.07014251993269
H           -0.17484900929236       -2.22567268721002       -1.46429781047283
H            0.85400750452257        0.43411701450264       -0.20213805294226
H            6.88133019727096       -0.13018774349244       -0.77532260843218
H            6.61961073720379        1.47703597839719       -1.49175242454406
H            5.57641353569430        0.11381162732529       -1.95746236196670
H            6.62722295884901        0.84491474476599        1.57874916300157
H            6.39460187023105        2.46021166518287        0.87048075623234
H            5.17003705362265        1.78550649363431        1.96938297277198
H           -3.95244366005780        2.85301437383257       -1.74036511383663

          :  Hamiltonian                  GFN1-xTB          :
         :: total energy             -82.931032551184 Eh    ::
         :: gradient norm              0.000231872926 Eh/a0 ::
         :: HOMO-LUMO gap              0.064981672709 eV    ::
         :: SCC energy               -83.690425575813 Eh    ::
         :: -> Gsolv                  -0.055430663355 Eh    ::
         :: repulsion energy           0.784531726167 Eh    ::

    * Orbital Energies and Occupations

         #    Occupation            Energy/Eh            Energy/eV
      -------------------------------------------------------------
         1        2.0000           -0.8888979             -24.1881
       ...           ...                  ...                  ...
        55        2.0000           -0.5114680             -13.9178
        56        2.0000           -0.5035385             -13.7020
        57        2.0000           -0.5018584             -13.6563
        58        2.0000           -0.4951304             -13.4732
        59        2.0000           -0.4876868             -13.2706
        60        2.0000           -0.4815861             -13.1046
        61        2.0000           -0.4756112             -12.9420
        62        2.0000           -0.4697162             -12.7816
        63        2.0000           -0.4675646             -12.7231
        64        2.0000           -0.4584882             -12.4761
        65        2.0000           -0.4469389             -12.1618
        66        1.9992           -0.4177457             -11.3674
        67        1.5574           -0.4115526             -11.1989 (HOMO)
        68        0.4435           -0.4091645             -11.1339 (LUMO)
        69                         -0.3257905              -8.8652
        70                         -0.3092616              -8.4154
        71                         -0.2723853              -7.4120
        72                         -0.2254094              -6.1337
        73                         -0.2231925              -6.0734
        74                         -0.1482576              -4.0343
        75                         -0.1468583              -3.9962
        76                         -0.1413572              -3.8465
        77                         -0.1367190              -3.7203
        78                         -0.1226707              -3.3380
       ...                                ...                  ...
       134                          0.7286570              19.8278
      -------------------------------------------------------------
                  HL-Gap            0.0023880 Eh            0.0650 eV

Wiberg/Mayer (AO) data.
largest (>0.10) Wiberg bond orders for each atom

     #   Z sym  total        # sym  WBO       # sym  WBO       # sym  WBO
 ---------------------------------------------------------------------------
     1   6 C    3.872 --    26 H    0.986    28 H    0.979    27 H    0.979
                             2 O    0.898
     2   8 O    2.202 --     3 C    1.116     1 C    0.898     4 O    0.135
     3   6 C    3.845 --     4 O    1.659     2 O    1.116     5 C    0.991
     4   8 O    1.917 --     3 C    1.659     2 O    0.135
     5   6 C    3.918 --    24 C    1.381     6 N    1.309     3 C    0.991
     6   7 N    2.859 --     7 C    1.341     5 C    1.309
     7   6 C    3.911 --    21 N    1.447     6 N    1.341     8 C    0.982
     8   6 C    3.921 --     7 C    0.982     9 C    0.977    10 C    0.968
                            11 N    0.924
     9   6 C    3.981 --    30 H    0.986    29 H    0.982    31 H    0.982
                             8 C    0.977
    10   6 C    3.979 --    34 H    0.986    32 H    0.984    33 H    0.981
                             8 C    0.968
    11   7 N    3.374 --    12 C    1.283     8 C    0.924    35 H    0.867
                            13 O    0.201
    12   6 C    3.922 --    13 O    1.580    11 N    1.283    14 C    0.975
    13   8 O    1.901 --    12 C    1.580    11 N    0.201
    14   6 C    3.649 --    15 N    1.282    20 O    1.223    12 C    0.975
    15   7 N    3.007 --    16 N    1.566    14 C    1.282
    16   7 N    2.726 --    15 N    1.566    17 C    1.026
    17   6 C    3.835 --    16 N    1.026    18 C    0.935    19 C    0.933
                            20 O    0.876
    18   6 C    3.938 --    38 H    0.982    37 H    0.981    36 H    0.980
                            17 C    0.935
    19   6 C    3.937 --    41 H    0.982    40 H    0.981    39 H    0.980
                            17 C    0.933
    20   8 O    2.245 --    14 C    1.223    17 C    0.876
    21   7 N    2.967 --     7 C    1.447    22 C    1.183
    22   6 C    3.875 --    23 O    1.549    21 N    1.183    24 C    1.034
    23   8 O    1.779 --    22 C    1.549
    24   6 C    3.738 --     5 C    1.381    25 O    1.143    22 C    1.034
    25   8 O    2.057 --    24 C    1.143    42 H    0.796
    26   1 H    1.011 --     1 C    0.986
    27   1 H    1.007 --     1 C    0.979
    28   1 H    1.007 --     1 C    0.979
    29   1 H    1.011 --     9 C    0.982
    30   1 H    1.001 --     9 C    0.986
    31   1 H    1.007 --     9 C    0.982
    32   1 H    1.005 --    10 C    0.984
    33   1 H    1.007 --    10 C    0.981
    34   1 H    1.002 --    10 C    0.986
    35   1 H    0.968 --    11 N    0.867
    36   1 H    0.995 --    18 C    0.980
    37   1 H    0.996 --    18 C    0.981
    38   1 H    0.995 --    18 C    0.982
    39   1 H    0.995 --    19 C    0.980
    40   1 H    0.996 --    19 C    0.981
    41   1 H    0.995 --    19 C    0.982
    42   1 H    0.848 --    25 O    0.796
 ---------------------------------------------------------------------------

           -------------------------------------------------
          | TOTAL ENERGY              -82.931032551184 Eh   |
          | GRADIENT NORM               0.000231872926 Eh/α |
          | HOMO-LUMO GAP               0.064981672709 eV   |
           -------------------------------------------------

 * finished run on 2023/06/20 at 18:24:00.826
