   * xtb version 6.5.1 (579679a) compiled by 'ehlert@majestix' on 2022-07-11
          program call               : /lustre/hpc/kemi/ree/PhD/git/ReactivityQM/dep/xtb-6.5.1/bin/xtb --gfn 1 /lustre/hpc/kemi/ree/PhD/git/ReactivityQM/calculations/R01/reac02/conf01/R01_reac02_conf01_gfn1.xyz --opt --vfukui --chrg 0 --uhf 0 --alpb DMSO

   ID    Z sym.   atoms
    1    6 C      1, 3, 5, 7-10, 13, 15
    2    8 O      2, 4, 14, 16
    3    7 N      6, 11, 12
    4    1 H      17-29

      * Solvation model:               ALPB
        Solvent                        DMSO
        Solvent mass                       7.8130E+01 g/mol
          :  Hamiltonian                  GFN1-xTB          :
 * total energy  :   -54.5049625 Eh     change       -0.5393019E-11 Eh
 * total energy  :   -54.5110987 Eh     change       -0.6136265E-02 Eh
 * total energy  :   -54.5127671 Eh     change       -0.1668340E-02 Eh
 * total energy  :   -54.5129831 Eh     change       -0.2160238E-03 Eh
 * total energy  :   -54.5131138 Eh     change       -0.1307381E-03 Eh
 * total energy  :   -54.5131599 Eh     change       -0.4606129E-04 Eh
 * total energy  :   -54.5132096 Eh     change       -0.4973061E-04 Eh
 * total energy  :   -54.5132363 Eh     change       -0.2664996E-04 Eh
 * total energy  :   -54.5132547 Eh     change       -0.1838691E-04 Eh
 * total energy  :   -54.5132656 Eh     change       -0.1089821E-04 Eh
 * total energy  :   -54.5152525 Eh     change       -0.4477195E-04 Eh
 * total energy  :   -54.5152936 Eh     change       -0.4115871E-04 Eh
 * total energy  :   -54.5153210 Eh     change       -0.2741496E-04 Eh
 * total energy  :   -54.5153423 Eh     change       -0.2122630E-04 Eh
 * total energy  :   -54.5153584 Eh     change       -0.1614783E-04 Eh
 * total energy  :   -54.5153715 Eh     change       -0.1313398E-04 Eh
 * total energy  :   -54.5153837 Eh     change       -0.1213667E-04 Eh
 * total energy  :   -54.5153905 Eh     change       -0.6846704E-05 Eh
 * total energy  :   -54.5153944 Eh     change       -0.3875645E-05 Eh
   *** GEOMETRY OPTIMIZATION CONVERGED AFTER 61 ITERATIONS ***

 final structure:
================
29
 xtb: 6.5.1 (579679a)
C            3.76590353922157       -1.20488340660239       -1.97143362902765
O            2.57824567684488       -0.78251144888696       -1.29309883063174
C            2.67979286669466        0.30727353530054       -0.54459574609577
O            3.71856909602933        0.93442851912978       -0.42235869021303
C            1.42161125483438        0.69213889287331        0.13459238863997
N            0.32009452544957       -0.09389477770965       -0.09194145724032
C           -0.79216509730178        0.20015485539120        0.49256377569025
C           -2.02671856190501       -0.64704409009118        0.26084595452903
C           -3.11288045491837        0.20785070262384       -0.41685226068956
C           -1.66769201326090       -1.84997924249841       -0.61341867422296
N           -2.48768061873112       -1.13631495934322        1.55999646761875
N           -0.90296223822775        1.27370513756142        1.32854860846341
C            0.12653174442435        2.14124251148891        1.63659991095731
O           -0.04637467576286        3.08006081089228        2.39516045890906
C            1.38035207900486        1.78855933956790        0.96173977139872
O            2.42550662390383        2.58083086104407        1.21095474086717
H            4.12820465772512       -0.40638526548789       -2.62266590543582
H            4.54092918923611       -1.45864224446494       -1.24447520675461
H            3.49430759699745       -2.08017349082886       -2.55785009573425
H           -3.38353540291398        1.04981974760296        0.21763143517737
H           -2.75491923094897        0.58611829083452       -1.37396678864107
H           -4.00091923443643       -0.39910181298321       -0.58337727185395
H           -0.90705992115793       -2.45389032367872       -0.11854346479256
H           -2.55281002611383       -2.46090521481770       -0.78208100582295
H           -1.27980723407461       -1.51360570756868       -1.57448528572615
H           -3.28519063692808       -1.73980050928527        1.41012156134849
H           -2.80700471343469       -0.36003911231113        2.12356918804619
H           -1.79031808803695        1.47469117520685        1.76368240444487
H            3.21799029778822        2.27029622704000        0.71513764679278

          :  Hamiltonian                  GFN1-xTB          :
         :: total energy             -54.515394394348 Eh    ::
         :: gradient norm              0.000303242879 Eh/a0 ::
         :: HOMO-LUMO gap              2.465796817702 eV    ::
         :: SCC energy               -55.039755656271 Eh    ::
         :: -> Gsolv                  -0.042172638825 Eh    ::
         :: repulsion energy           0.540310160583 Eh    ::

    * Orbital Energies and Occupations

         #    Occupation            Energy/Eh            Energy/eV
      -------------------------------------------------------------
         1        2.0000           -0.8444768             -22.9794
       ...           ...                  ...                  ...
        32        2.0000           -0.5177274             -14.0881
        33        2.0000           -0.5172303             -14.0746
        34        2.0000           -0.5138294             -13.9820
        35        2.0000           -0.5014023             -13.6439
        36        2.0000           -0.4992903             -13.5864
        37        2.0000           -0.4967129             -13.5162
        38        2.0000           -0.4890603             -13.3080
        39        2.0000           -0.4875968             -13.2682
        40        2.0000           -0.4841407             -13.1741
        41        2.0000           -0.4571298             -12.4391
        42        2.0000           -0.4442142             -12.0877
        43        2.0000           -0.4282352             -11.6529
        44        2.0000           -0.4153664             -11.3027 (HOMO)
        45                         -0.3247500              -8.8369 (LUMO)
        46                         -0.2795687              -7.6075
        47                         -0.2414934              -6.5714
        48                         -0.1575300              -4.2866
        49                         -0.1393080              -3.7908
        50                         -0.1339298              -3.6444
        51                         -0.1224483              -3.3320
        52                         -0.1099934              -2.9931
        53                         -0.0960986              -2.6150
        54                         -0.0821495              -2.2354
        55                         -0.0758449              -2.0638
       ...                                ...                  ...
        90                          0.7211865              19.6245
      -------------------------------------------------------------
                  HL-Gap            0.0906164 Eh            2.4658 eV

Wiberg/Mayer (AO) data.
largest (>0.10) Wiberg bond orders for each atom

     #   Z sym  total        # sym  WBO       # sym  WBO       # sym  WBO
 ---------------------------------------------------------------------------
     1   6 C    3.867 --    19 H    0.986    18 H    0.979    17 H    0.979
                             2 O    0.893
     2   8 O    2.215 --     3 C    1.133     1 C    0.893     4 O    0.129
     3   6 C    3.847 --     4 O    1.604     2 O    1.133     5 C    1.021
     4   8 O    1.942 --     3 C    1.604     2 O    0.129
     5   6 C    3.965 --    15 C    1.487     6 N    1.178     3 C    1.021
     6   7 N    3.023 --     7 C    1.586     5 C    1.178
     7   6 C    3.920 --     6 N    1.586    12 N    1.169     8 C    0.977
     8   6 C    3.966 --    10 C    1.001    11 N    0.980     7 C    0.977
                             9 C    0.976
     9   6 C    3.993 --    21 H    0.984    22 H    0.983    20 H    0.983
                             8 C    0.976
    10   6 C    3.995 --     8 C    1.001    24 H    0.986    25 H    0.985
                            23 H    0.985
    11   7 N    2.945 --     8 C    0.980    27 H    0.944    26 H    0.940
    12   7 N    3.464 --     7 C    1.169    13 C    1.126    28 H    0.886
                            14 O    0.136
    13   6 C    3.910 --    14 O    1.595    12 N    1.126    15 C    1.057
    14   8 O    1.894 --    13 C    1.595    12 N    0.136
    15   6 C    3.921 --     5 C    1.487    16 O    1.122    13 C    1.057
    16   8 O    2.090 --    15 C    1.122    29 H    0.778
    17   1 H    1.007 --     1 C    0.979
    18   1 H    1.006 --     1 C    0.979
    19   1 H    1.010 --     1 C    0.986
    20   1 H    1.002 --     9 C    0.983
    21   1 H    1.001 --     9 C    0.984
    22   1 H    1.001 --     9 C    0.983
    23   1 H    1.011 --    10 C    0.985
    24   1 H    1.001 --    10 C    0.986
    25   1 H    1.010 --    10 C    0.985
    26   1 H    0.955 --    11 N    0.940
    27   1 H    0.958 --    11 N    0.944
    28   1 H    0.931 --    12 N    0.886
    29   1 H    0.853 --    16 O    0.778
 ---------------------------------------------------------------------------

           -------------------------------------------------
          | TOTAL ENERGY              -54.515394394348 Eh   |
          | GRADIENT NORM               0.000303242879 Eh/α |
          | HOMO-LUMO GAP               2.465796817702 eV   |
           -------------------------------------------------

 * finished run on 2023/06/20 at 14:51:58.963
