   * xtb version 6.5.1 (579679a) compiled by 'ehlert@majestix' on 2022-07-11
          program call               : /lustre/hpc/kemi/ree/PhD/git/ReactivityQM/dep/xtb-6.5.1/bin/xtb --gfn 1 /lustre/hpc/kemi/ree/PhD/git/ReactivityQM/calculations/R01/reac01prodN05/conf14/R01_reac01prodN05_conf14_gfn1.xyz --opt --vfukui --chrg 1 --uhf 0 --alpb DMSO

   ID    Z sym.   atoms
    1    6 C      1, 3, 4, 6, 9, 10
    2    8 O      2, 5, 11
    3    7 N      7, 8
    4    1 H      12-20

      * Solvation model:               ALPB
        Solvent                        DMSO
        Solvent mass                       7.8130E+01 g/mol
          :  Hamiltonian                  GFN1-xTB          :
 * total energy  :   -37.4552605 Eh     change       -0.1443041E-09 Eh
 * total energy  :   -37.4702831 Eh     change       -0.1502258E-01 Eh
 * total energy  :   -37.4803083 Eh     change       -0.1002527E-01 Eh
 * total energy  :   -37.4848527 Eh     change       -0.4544360E-02 Eh
 * total energy  :   -37.4993240 Eh     change       -0.1447135E-01 Eh
 * total energy  :   -37.5046595 Eh     change       -0.5335515E-02 Eh
 * total energy  :   -37.5382015 Eh     change       -0.3354192E-01 Eh
 * total energy  :   -37.5677730 Eh     change       -0.2957155E-01 Eh
 * total energy  :   -37.5804440 Eh     change       -0.1267095E-01 Eh
 * total energy  :   -37.5883031 Eh     change       -0.7859118E-02 Eh
 * total energy  :   -37.6286500 Eh     change       -0.1566550E-04 Eh
 * total energy  :   -37.6286633 Eh     change       -0.1332139E-04 Eh
 * total energy  :   -37.6286750 Eh     change       -0.1167205E-04 Eh
 * total energy  :   -37.6286842 Eh     change       -0.9230735E-05 Eh
 * total energy  :   -37.6286907 Eh     change       -0.6480130E-05 Eh
 * total energy  :   -37.6286941 Eh     change       -0.3407729E-05 Eh
 * total energy  :   -37.6286992 Eh     change       -0.5120440E-05 Eh
 * total energy  :   -37.6287024 Eh     change       -0.3193018E-05 Eh
 * total energy  :   -37.6287055 Eh     change       -0.3110885E-05 Eh
   *** GEOMETRY OPTIMIZATION CONVERGED AFTER 62 ITERATIONS ***

 final structure:
================
20
 xtb: 6.5.1 (579679a)
C           -3.45225602890497       -1.22605305103726        0.01620756390868
O           -2.85532774918748        0.05191200092842       -0.29630045812056
C           -1.60243579937429        0.24047057622231       -0.26038408815782
C           -1.08424515056419        1.57444467076530       -0.59902821299954
O           -0.85900331140434       -0.77492024439059        0.07725607818049
C            0.48810929926053       -0.82182432856788        0.18202689044718
N            1.15127765679838       -1.87837805356016        0.49510756238532
N            2.46027828766877       -1.49954455240345        0.48780283892455
C            2.50163939554276       -0.24497544335835        0.17215786572768
C            3.68345617799358        0.62703413746653        0.03122058337967
O            1.25614849343443        0.25275619094604       -0.03884029835670
H           -4.51686449815114       -1.10406936497186       -0.16777210104119
H           -3.02122109278704       -1.99028572164449       -0.63025166947671
H           -3.25489212460544       -1.46192172809881        1.06200843322736
H           -0.52980018800457        1.97671999774879        0.25102693640610
H           -1.90821062777677        2.23456125075781       -0.86157065759935
H           -0.37942148972357        1.49255773058802       -1.42814348828723
H            3.74605749242120        1.00443046852483       -0.98969628385990
H            3.59395217217345        1.48329207439601        0.69959773366373
H            4.58275908519138        0.06379338968825        0.27036577164745

          :  Hamiltonian                  GFN1-xTB          :
         :: total energy             -37.628705497537 Eh    ::
         :: gradient norm              0.000702796151 Eh/a0 ::
         :: HOMO-LUMO gap              2.884809135100 eV    ::
         :: SCC energy               -37.975414075135 Eh    ::
         :: -> Gsolv                  -0.083950329317 Eh    ::
         :: repulsion energy           0.354721211500 Eh    ::

    * Orbital Energies and Occupations

         #    Occupation            Energy/Eh            Energy/eV
      -------------------------------------------------------------
         1        2.0000           -0.9498581             -25.8470
       ...           ...                  ...                  ...
        18        2.0000           -0.6239169             -16.9776
        19        2.0000           -0.5972022             -16.2507
        20        2.0000           -0.5938173             -16.1586
        21        2.0000           -0.5801520             -15.7867
        22        2.0000           -0.5684928             -15.4695
        23        2.0000           -0.5650311             -15.3753
        24        2.0000           -0.5614022             -15.2765
        25        2.0000           -0.5574078             -15.1678
        26        2.0000           -0.5504792             -14.9793
        27        2.0000           -0.5409982             -14.7213
        28        2.0000           -0.5163727             -14.0512
        29        2.0000           -0.4914384             -13.3727
        30        2.0000           -0.4847823             -13.1916 (HOMO)
        31                         -0.3787676             -10.3068 (LUMO)
        32                         -0.2948502              -8.0233
        33                         -0.2789356              -7.5902
        34                         -0.1798528              -4.8940
        35                         -0.1663100              -4.5255
        36                         -0.1544112              -4.2017
        37                         -0.1110901              -3.0229
        38                         -0.1087524              -2.9593
        39                         -0.1045797              -2.8458
        40                         -0.1036114              -2.8194
        41                         -0.0855691              -2.3285
       ...                                ...                  ...
        62                          0.5655045              15.3882
      -------------------------------------------------------------
                  HL-Gap            0.1060148 Eh            2.8848 eV

Wiberg/Mayer (AO) data.
largest (>0.10) Wiberg bond orders for each atom

     #   Z sym  total        # sym  WBO       # sym  WBO       # sym  WBO
 ---------------------------------------------------------------------------
     1   6 C    3.802 --    12 H    0.980    13 H    0.971    14 H    0.968
                             2 O    0.833
     2   8 O    2.349 --     3 C    1.343     1 C    0.833
     3   6 C    3.764 --     2 O    1.343     5 O    1.181     4 C    1.048
     4   6 C    3.958 --     3 C    1.048    16 H    0.972    17 H    0.928
                            15 H    0.926
     5   8 O    2.362 --     3 C    1.181     6 C    0.966
     6   6 C    3.814 --     7 N    1.608    11 O    1.063     5 O    0.966
     7   7 N    3.007 --     6 C    1.608     8 N    1.181
     8   7 N    2.983 --     9 C    1.629     7 N    1.181
     9   6 C    3.839 --     8 N    1.629    10 C    1.037    11 O    1.026
    10   6 C    3.978 --     9 C    1.037    20 H    0.979    19 H    0.958
                            18 H    0.956
    11   8 O    2.308 --     6 C    1.063     9 C    1.026
    12   1 H    0.998 --     1 C    0.980
    13   1 H    0.994 --     1 C    0.971
    14   1 H    0.993 --     1 C    0.968
    15   1 H    0.987 --     4 C    0.926
    16   1 H    0.986 --     4 C    0.972
    17   1 H    0.987 --     4 C    0.928
    18   1 H    0.992 --    10 C    0.956
    19   1 H    0.992 --    10 C    0.958
    20   1 H    0.994 --    10 C    0.979
 ---------------------------------------------------------------------------

           -------------------------------------------------
          | TOTAL ENERGY              -37.628705497537 Eh   |
          | GRADIENT NORM               0.000702796151 Eh/α |
          | HOMO-LUMO GAP               2.884809135100 eV   |
           -------------------------------------------------

 * finished run on 2023/06/20 at 14:56:05.415
