                         Program Version 5.0.1 -  RELEASE  -
|  1> # ORCA input file
|  2> ! SP r2SCAN-3c CPCM
|  3>
|  4> %maxcore 1875.0
|  5> %pal nprocs 4 end
|  6> %cpcm smd true SMDsolvent "DMSO" end
|  7>
|  8> *xyz 1 1
|  9> C      -5.312756   -0.380906    3.177340
| 10> O      -4.267711   -0.394351    2.197047
| 11> C      -4.432268    0.391473    1.144005
| 12> O      -5.411449    1.098833    0.983789
| 13> C      -3.316788    0.339512    0.170860
| 14> N      -2.256785   -0.472002    0.460690
| 15> C      -1.253759   -0.557485   -0.349712
| 16> C      -0.149123   -1.508297    0.088966
| 17> C      -0.256621   -1.751267    1.600998
| 18> C      -0.253601   -2.842653   -0.655466
| 19> N       1.178957   -0.928300   -0.171522
| 20> C       1.493594    0.305270    0.231921
| 21> O       0.745633    1.123933    0.727145
| 22> C       2.937826    0.636109   -0.025264
| 23> O       3.766297   -0.201131   -0.630882
| 24> C       4.954238    0.426396   -0.692455
| 25> C       6.119568   -0.230745   -1.305418
| 26> N       4.882604    1.607784   -0.151713
| 27> N       3.607969    1.727027    0.262864
| 28> C       3.198782    2.942447    0.936451
| 29> N      -1.221703    0.120331   -1.539254
| 30> C      -0.136107    0.031031   -2.514021
| 31> C      -2.222244    1.022451   -1.910532
| 32> O      -2.129747    1.659077   -2.948114
| 33> C      -3.339156    1.099775   -0.971162
| 34> O      -4.328187    1.929328   -1.303955
| 35> H      -6.260957   -0.666476    2.716053
| 36> H      -5.028805   -1.100797    3.942074
| 37> H      -5.404741    0.618327    3.608944
| 38> H      -0.234430   -0.803493    2.136142
| 39> H      -1.192858   -2.260194    1.822897
| 40> H       0.576726   -2.369602    1.926882
| 41> H       0.521592   -3.519811   -0.301733
| 42> H      -0.140682   -2.713937   -1.729193
| 43> H      -1.228161   -3.286714   -0.456341
| 44> H       1.905760   -1.542240   -0.498135
| 45> H       5.851447   -0.606523   -2.292860
| 46> H       6.946922    0.471171   -1.380294
| 47> H       6.416524   -1.085131   -0.694859
| 48> H       3.494106    3.788733    0.318485
| 49> H       3.714848    2.989615    1.894865
| 50> H       2.121567    2.919890    1.081143
| 51> H       0.425833   -0.883544   -2.382368
| 52> H      -0.574770    0.050658   -3.512310
| 53> H       0.524732    0.889805   -2.397472
| 54> H      -5.032117    1.916621   -0.614526
| 55> **                         ****END OF INPUT****

CARTESIAN COORDINATES (ANGSTROEM)
---------------------------------
  C     -5.312756   -0.380906    3.177340
  O     -4.267711   -0.394351    2.197047
  C     -4.432268    0.391473    1.144005
  O     -5.411449    1.098833    0.983789
  C     -3.316788    0.339512    0.170860
  N     -2.256785   -0.472002    0.460690
  C     -1.253759   -0.557485   -0.349712
  C     -0.149123   -1.508297    0.088966
  C     -0.256621   -1.751267    1.600998
  C     -0.253601   -2.842653   -0.655466
  N      1.178957   -0.928300   -0.171522
  C      1.493594    0.305270    0.231921
  O      0.745633    1.123933    0.727145
  C      2.937826    0.636109   -0.025264
  O      3.766297   -0.201131   -0.630882
  C      4.954238    0.426396   -0.692455
  C      6.119568   -0.230745   -1.305418
  N      4.882604    1.607784   -0.151713
  N      3.607969    1.727027    0.262864
  C      3.198782    2.942447    0.936451
  N     -1.221703    0.120331   -1.539254
  C     -0.136107    0.031031   -2.514021
  C     -2.222244    1.022451   -1.910532
  O     -2.129747    1.659077   -2.948114
  C     -3.339156    1.099775   -0.971162
  O     -4.328187    1.929328   -1.303955
  H     -6.260957   -0.666476    2.716053
  H     -5.028805   -1.100797    3.942074
  H     -5.404741    0.618327    3.608944
  H     -0.234430   -0.803493    2.136142
  H     -1.192858   -2.260194    1.822897
  H      0.576726   -2.369602    1.926882
  H      0.521592   -3.519811   -0.301733
  H     -0.140682   -2.713937   -1.729193
  H     -1.228161   -3.286714   -0.456341
  H      1.905760   -1.542240   -0.498135
  H      5.851447   -0.606523   -2.292860
  H      6.946922    0.471171   -1.380294
  H      6.416524   -1.085131   -0.694859
  H      3.494106    3.788733    0.318485
  H      3.714848    2.989615    1.894865
  H      2.121567    2.919890    1.081143
  H      0.425833   -0.883544   -2.382368
  H     -0.574770    0.050658   -3.512310
  H      0.524732    0.889805   -2.397472
  H     -5.032117    1.916621   -0.614526

 Total Charge           Charge          ....    1
 Multiplicity           Mult            ....    1
 Number of Electrons    NEL             ....  192
 Basis Dimension        Dim             ....  649

ORBITAL ENERGIES
----------------

  NO   OCC          E(Eh)            E(eV)
   0   2.0000     -19.115124      -520.1490
   1   2.0000     -19.011957      -517.3417
   2   2.0000     -18.997089      -516.9371
   3   2.0000     -18.963536      -516.0241
   4   2.0000     -18.957819      -515.8685
   5   2.0000     -18.932461      -515.1784
   6   2.0000     -14.333342      -390.0301
   7   2.0000     -14.249098      -387.7377
   8   2.0000     -14.241668      -387.5355
   9   2.0000     -14.226281      -387.1168
  10   2.0000     -14.164458      -385.4345
  11   2.0000     -10.213822      -277.9322
  12   2.0000     -10.193759      -277.3863
  13   2.0000     -10.189094      -277.2593
  14   2.0000     -10.175252      -276.8827
  15   2.0000     -10.148296      -276.1492
  16   2.0000     -10.129663      -275.6421
  17   2.0000     -10.124639      -275.5054
  18   2.0000     -10.116052      -275.2718
  19   2.0000     -10.092135      -274.6210
  20   2.0000     -10.091533      -274.6046
  21   2.0000     -10.081714      -274.3374
  22   2.0000     -10.066131      -273.9134
  23   2.0000     -10.062288      -273.8088
  24   2.0000     -10.033836      -273.0346
  25   2.0000     -10.023628      -272.7568
  26   2.0000      -1.217528       -33.1306
  27   2.0000      -1.091038       -29.6887
  28   2.0000      -1.061642       -28.8888
  29   2.0000      -1.055949       -28.7338
  30   2.0000      -1.053329       -28.6625
  31   2.0000      -1.023318       -27.8459
  32   2.0000      -0.999267       -27.1914
  33   2.0000      -0.970532       -26.4095
  34   2.0000      -0.938639       -25.5417
  35   2.0000      -0.901536       -24.5321
  36   2.0000      -0.891011       -24.2456
  37   2.0000      -0.801431       -21.8080
  38   2.0000      -0.779265       -21.2049
  39   2.0000      -0.752951       -20.4888
  40   2.0000      -0.743591       -20.2341
  41   2.0000      -0.725182       -19.7332
  42   2.0000      -0.692951       -18.8561
  43   2.0000      -0.691240       -18.8096
  44   2.0000      -0.670283       -18.2393
  45   2.0000      -0.652591       -17.7579
  46   2.0000      -0.646527       -17.5929
  47   2.0000      -0.636628       -17.3235
  48   2.0000      -0.624246       -16.9866
  49   2.0000      -0.578384       -15.7386
  50   2.0000      -0.565468       -15.3872
  51   2.0000      -0.559726       -15.2309
  52   2.0000      -0.553183       -15.0529
  53   2.0000      -0.543094       -14.7783
  54   2.0000      -0.521767       -14.1980
  55   2.0000      -0.519600       -14.1390
  56   2.0000      -0.498317       -13.5599
  57   2.0000      -0.478356       -13.0167
  58   2.0000      -0.470427       -12.8010
  59   2.0000      -0.463726       -12.6186
  60   2.0000      -0.457985       -12.4624
  61   2.0000      -0.456423       -12.4199
  62   2.0000      -0.455377       -12.3914
  63   2.0000      -0.446183       -12.1413
  64   2.0000      -0.443651       -12.0724
  65   2.0000      -0.442895       -12.0518
  66   2.0000      -0.434362       -11.8196
  67   2.0000      -0.423331       -11.5194
  68   2.0000      -0.410989       -11.1836
  69   2.0000      -0.407409       -11.0862
  70   2.0000      -0.404537       -11.0080
  71   2.0000      -0.400207       -10.8902
  72   2.0000      -0.394585       -10.7372
  73   2.0000      -0.393238       -10.7005
  74   2.0000      -0.386596       -10.5198
  75   2.0000      -0.378006       -10.2861
  76   2.0000      -0.374388       -10.1876
  77   2.0000      -0.369227       -10.0472
  78   2.0000      -0.367677       -10.0050
  79   2.0000      -0.365538        -9.9468
  80   2.0000      -0.360633        -9.8133
  81   2.0000      -0.350906        -9.5486
  82   2.0000      -0.343909        -9.3582
  83   2.0000      -0.342810        -9.3283
  84   2.0000      -0.341669        -9.2973
  85   2.0000      -0.331672        -9.0253
  86   2.0000      -0.329606        -8.9690
  87   2.0000      -0.304701        -8.2913
  88   2.0000      -0.289509        -7.8779
  89   2.0000      -0.281390        -7.6570
  90   2.0000      -0.280304        -7.6275
  91   2.0000      -0.270314        -7.3556
  92   2.0000      -0.266393        -7.2489
  93   2.0000      -0.246574        -6.7096
  94   2.0000      -0.242858        -6.6085
  95   2.0000      -0.211378        -5.7519
  96   0.0000      -0.133434        -3.6309
  97   0.0000      -0.095743        -2.6053
  98   0.0000      -0.065387        -1.7793
  99   0.0000      -0.042164        -1.1473
 100   0.0000       0.006333         0.1723

MULLIKEN ATOMIC CHARGES
-----------------------
   0 C :   -0.310726
   1 O :   -0.185140
   2 C :    0.210899
   3 O :   -0.479252
   4 C :    0.102714
   5 N :   -0.095728
   6 C :    0.081906
   7 C :   -0.002666
   8 C :   -0.603360
   9 C :   -0.492181
  10 N :   -0.125249
  11 C :    0.024060
  12 O :   -0.450424
  13 C :    0.169359
  14 O :    0.017535
  15 C :    0.497615
  16 C :   -0.616640
  17 N :   -0.420534
  18 N :    0.535012
  19 C :   -0.408601
  20 N :    0.273318
  21 C :   -0.447318
  22 C :    0.130554
  23 O :   -0.432828
  24 C :    0.057525
  25 O :   -0.358179
  26 H :    0.179693
  27 H :    0.179985
  28 H :    0.180355
  29 H :    0.200820
  30 H :    0.193856
  31 H :    0.186637
  32 H :    0.194981
  33 H :    0.187445
  34 H :    0.202964
  35 H :    0.332468
  36 H :    0.214301
  37 H :    0.218874
  38 H :    0.221061
  39 H :    0.215020
  40 H :    0.219537
  41 H :    0.221072
  42 H :    0.201136
  43 H :    0.195632
  44 H :    0.208965
  45 H :    0.373526
Sum of atomic charges:    1.0000000

LOEWDIN ATOMIC CHARGES
----------------------
   0 C :   -0.031707
   1 O :   -0.557182
   2 C :    0.408340
   3 O :   -0.463153
   4 C :    0.195567
   5 N :   -0.566326
   6 C :    0.367894
   7 C :    0.114477
   8 C :   -0.328222
   9 C :   -0.335918
  10 N :   -0.564848
  11 C :    0.385330
  12 O :   -0.430244
  13 C :    0.523316
  14 O :   -0.329867
  15 C :    0.431492
  16 C :   -0.298782
  17 N :   -0.212882
  18 N :   -0.491196
  19 C :   -0.019383
  20 N :   -0.630095
  21 C :   -0.066348
  22 C :    0.383205
  23 O :   -0.454375
  24 C :    0.285860
  25 O :   -0.440389
  26 H :    0.184724
  27 H :    0.188235
  28 H :    0.184404
  29 H :    0.181471
  30 H :    0.180930
  31 H :    0.170070
  32 H :    0.177989
  33 H :    0.173191
  34 H :    0.182157
  35 H :    0.306717
  36 H :    0.202481
  37 H :    0.201190
  38 H :    0.205660
  39 H :    0.218620
  40 H :    0.218837
  41 H :    0.223560
  42 H :    0.203100
  43 H :    0.208297
  44 H :    0.198932
  45 H :    0.314872

  Mayer bond orders larger than 0.100000
B(  0-C ,  1-O ) :   0.8225 B(  0-C , 26-H ) :   0.9549 B(  0-C , 27-H ) :   0.9609
B(  0-C , 28-H ) :   0.9538 B(  1-O ,  2-C ) :   1.2024 B(  2-C ,  3-O ) :   1.7291
B(  2-C ,  4-C ) :   1.0674 B(  4-C ,  5-N ) :   1.0208 B(  4-C , 24-C ) :   1.2859
B(  5-N ,  6-C ) :   1.6762 B(  6-C ,  7-C ) :   0.7784 B(  6-C , 20-N ) :   1.2315
B(  6-C , 24-C ) :   0.1186 B(  7-C ,  8-C ) :   0.9218 B(  7-C ,  9-C ) :   0.9997
B(  7-C , 10-N ) :   0.7539 B(  8-C , 29-H ) :   0.9589 B(  8-C , 30-H ) :   0.9580
B(  8-C , 31-H ) :   0.9693 B(  9-C , 32-H ) :   0.9620 B(  9-C , 33-H ) :   0.9276
B(  9-C , 34-H ) :   0.9644 B( 10-N , 11-C ) :   1.2178 B( 10-N , 12-O ) :   0.1005
B( 10-N , 35-H ) :   0.8922 B( 11-C , 12-O ) :   1.7327 B( 11-C , 13-C ) :   0.8798
B( 11-C , 17-N ) :   0.1067 B( 11-C , 18-N ) :  -0.1284 B( 13-C , 14-O ) :   1.1517
B( 13-C , 17-N ) :   0.2031 B( 13-C , 18-N ) :   1.6955 B( 14-O , 15-C ) :   1.0533
B( 15-C , 16-C ) :   0.8521 B( 15-C , 17-N ) :   1.4941 B( 16-C , 36-H ) :   0.9373
B( 16-C , 37-H ) :   0.9729 B( 16-C , 38-H ) :   0.9213 B( 17-N , 18-N ) :   1.2125
B( 18-N , 19-C ) :   0.8984 B( 19-C , 39-H ) :   0.9199 B( 19-C , 40-H ) :   0.9130
B( 19-C , 41-H ) :   0.9299 B( 20-N , 21-C ) :   0.8500 B( 20-N , 22-C ) :   1.0540
B( 21-C , 42-H ) :   0.9286 B( 21-C , 43-H ) :   0.9342 B( 21-C , 44-H ) :   0.9328
B( 22-C , 23-O ) :   1.8903 B( 22-C , 24-C ) :   1.0090 B( 24-C , 25-O ) :   1.1462
B( 25-O , 45-H ) :   0.7704

Dispersion correction           -0.021048774
FINAL SINGLE POINT ENERGY     -1308.389276094464

DIPOLE MOMENT
-------------
                                X             Y             Z
Electronic contribution:     -3.99633       9.75571      -4.30438
Nuclear contribution   :     12.75689     -12.02276       5.09453
                        -----------------------------------------
Total Dipole Moment    :      8.76055      -2.26706       0.79015
                        -----------------------------------------
Magnitude (a.u.)       :      9.08357
Magnitude (Debye)      :     23.08859

Rotational constants in cm-1:     0.013057     0.003544     0.003394
Rotational constants in MHz :   391.426182   106.259489   101.757517

                             ****ORCA TERMINATED NORMALLY****
TOTAL RUN TIME: 0 days 0 hours 1 minutes 41 seconds 541 msec
