   * xtb version 6.5.1 (579679a) compiled by 'ehlert@majestix' on 2022-07-11
          program call               : /lustre/hpc/kemi/ree/PhD/git/ReactivityQM/dep/xtb-6.5.1/bin/xtb --gfn 1 /lustre/hpc/kemi/ree/PhD/git/ReactivityQM/calculations/R03/reac02prodN06/conf08/R03_reac02prodN06_conf08_gfn1.xyz --opt --vfukui --chrg 1 --uhf 0 --alpb DMSO

   ID    Z sym.   atoms
    1    6 C      1, 3, 5, 7-10, 12, 14, 16, 17, 20, 22, 23, 25
    2    8 O      2, 4, 13, 15, 24, 26
    3    7 N      6, 11, 18, 19, 21
    4    1 H      27-46

      * Solvation model:               ALPB
        Solvent                        DMSO
        Solvent mass                       7.8130E+01 g/mol
          :  Hamiltonian                  GFN1-xTB          :
 * total energy  :   -86.3382158 Eh     change       -0.5726974E-11 Eh
 * total energy  :   -86.3572241 Eh     change       -0.1900821E-01 Eh
 * total energy  :   -86.3646339 Eh     change       -0.7409889E-02 Eh
 * total energy  :   -86.3663909 Eh     change       -0.1756992E-02 Eh
 * total energy  :   -86.3677754 Eh     change       -0.1384495E-02 Eh
 * total energy  :   -86.3684298 Eh     change       -0.6544103E-03 Eh
 * total energy  :   -86.3689404 Eh     change       -0.5105113E-03 Eh
 * total energy  :   -86.3692762 Eh     change       -0.3358905E-03 Eh
 * total energy  :   -86.3694826 Eh     change       -0.2063920E-03 Eh
 * total energy  :   -86.3695926 Eh     change       -0.1099481E-03 Eh
 * total energy  :   -86.3705459 Eh     change        0.7685138E-04 Eh
 * total energy  :   -86.3706334 Eh     change       -0.8752457E-04 Eh
 * total energy  :   -86.3706397 Eh     change       -0.6255472E-05 Eh
 * total energy  :   -86.3706490 Eh     change       -0.9277329E-05 Eh
 * total energy  :   -86.3706552 Eh     change       -0.6227934E-05 Eh
 * total energy  :   -86.3705680 Eh     change        0.8725238E-04 Eh
 * total energy  :   -86.3706676 Eh     change       -0.9962605E-04 Eh
 * total energy  :   -86.3706719 Eh     change       -0.4303904E-05 Eh
 * total energy  :   -86.3706748 Eh     change       -0.2883477E-05 Eh
   *** GEOMETRY OPTIMIZATION CONVERGED AFTER 59 ITERATIONS ***

 final structure:
================
46
 xtb: 6.5.1 (579679a)
C           -5.31275581925047       -0.38090597881047        3.17734047041116
O           -4.26771050642484       -0.39435082380928        2.19704655945627
C           -4.43226823683942        0.39147334301497        1.14400471370586
O           -5.41144874512896        1.09883281624136        0.98378921852302
C           -3.31678848303367        0.33951195571344        0.17086012249976
N           -2.25678507549241       -0.47200240020934        0.46068999221018
C           -1.25375935356515       -0.55748462472784       -0.34971217402089
C           -0.14912293572996       -1.50829720681219        0.08896599755199
C           -0.25662146579558       -1.75126663130097        1.60099814563566
C           -0.25360105210079       -2.84265301229547       -0.65546647958123
N            1.17895746097919       -0.92829985274353       -0.17152238977178
C            1.49359357930891        0.30527004001894        0.23192080324430
O            0.74563305234064        1.12393319402588        0.72714519337745
C            2.93782605435867        0.63610858767673       -0.02526429241146
O            3.76629710831578       -0.20113102757745       -0.63088199776084
C            4.95423772702061        0.42639633306659       -0.69245513694804
C            6.11956772267038       -0.23074453588082       -1.30541783080412
N            4.88260396395784        1.60778420879633       -0.15171346263775
N            3.60796908285189        1.72702734311036        0.26286399583697
C            3.19878191216634        2.94244719856849        0.93645134027633
N           -1.22170260633272        0.12033100176281       -1.53925446396599
C           -0.13610651320285        0.03103052056401       -2.51402072666319
C           -2.22224420914422        1.02245076469235       -1.91053163241625
O           -2.12974692411453        1.65907745772957       -2.94811373772180
C           -3.33915648267965        1.09977480063325       -0.97116229522191
O           -4.32818733424374        1.92932827270862       -1.30395464968927
H           -6.26095715662621       -0.66647568975836        2.71605342640532
H           -5.02880473715212       -1.10079695152958        3.94207412689788
H           -5.40474073713940        0.61832657310173        3.60894366768840
H           -0.23442961425421       -0.80349305719379        2.13614177885712
H           -1.19285843470644       -2.26019422660268        1.82289742081773
H            0.57672617626983       -2.36960171412989        1.92688180242860
H            0.52159223063856       -3.51981101120353       -0.30173262087205
H           -0.14068230974726       -2.71393706792369       -1.72919337753626
H           -1.22816066944801       -3.28671430159715       -0.45634052737001
H            1.90576049368471       -1.54224006299193       -0.49813541755913
H            5.85144693240930       -0.60652332449655       -2.29285983775115
H            6.94692225493870        0.47117108740161       -1.38029429914943
H            6.41652395269232       -1.08513078075645       -0.69485948451199
H            3.49410637076132        3.78873318859200        0.31848522155166
H            3.71484792023550        2.98961529380261        1.89486501891934
H            2.12156721176750        2.91989015659259        1.08114341820429
H            0.42583319893302       -0.88354387064478       -2.38236771595719
H           -0.57476979145954        0.05065822994893       -3.51231024732567
H            0.52473188054521        0.88980501431050       -2.39747190127811
H           -5.03211709323607        1.91662077092164       -0.61452573558083

          :  Hamiltonian                  GFN1-xTB          :
         :: total energy             -86.370674764928 Eh    ::
         :: gradient norm              0.000327675257 Eh/a0 ::
         :: HOMO-LUMO gap              1.491014955241 eV    ::
         :: SCC energy               -87.212570890602 Eh    ::
         :: -> Gsolv                  -0.121619904866 Eh    ::
         :: repulsion energy           0.871355087591 Eh    ::

    * Orbital Energies and Occupations

         #    Occupation            Energy/Eh            Energy/eV
      -------------------------------------------------------------
         1        2.0000           -0.9395175             -25.5656
       ...           ...                  ...                  ...
        58        2.0000           -0.5302445             -14.4287
        59        2.0000           -0.5226557             -14.2222
        60        2.0000           -0.5201896             -14.1551
        61        2.0000           -0.5187494             -14.1159
        62        2.0000           -0.5159497             -14.0397
        63        2.0000           -0.5065845             -13.7849
        64        2.0000           -0.5024823             -13.6732
        65        2.0000           -0.4935292             -13.4296
        66        2.0000           -0.4876759             -13.2703
        67        2.0000           -0.4803551             -13.0711
        68        2.0000           -0.4646050             -12.6425
        69        2.0000           -0.4505065             -12.2589
        70        2.0000           -0.4332657             -11.7898 (HOMO)
        71                         -0.3784719             -10.2987 (LUMO)
        72                         -0.3300430              -8.9809
        73                         -0.3246843              -8.8351
        74                         -0.2908008              -7.9131
        75                         -0.2593637              -7.0576
        76                         -0.2470123              -6.7215
        77                         -0.1727798              -4.7016
        78                         -0.1668338              -4.5398
        79                         -0.1638561              -4.4588
        80                         -0.1521103              -4.1391
        81                         -0.1410881              -3.8392
       ...                                ...                  ...
       144                          0.7139962              19.4288
      -------------------------------------------------------------
                  HL-Gap            0.0547938 Eh            1.4910 eV

Wiberg/Mayer (AO) data.
largest (>0.10) Wiberg bond orders for each atom

     #   Z sym  total        # sym  WBO       # sym  WBO       # sym  WBO
 ---------------------------------------------------------------------------
     1   6 C    3.865 --    28 H    0.986    27 H    0.979    29 H    0.979
                             2 O    0.890
     2   8 O    2.218 --     3 C    1.138     1 C    0.890     4 O    0.130
     3   6 C    3.849 --     4 O    1.608     2 O    1.138     5 C    1.018
     4   8 O    1.944 --     3 C    1.608     2 O    0.130
     5   6 C    3.963 --    25 C    1.476     6 N    1.186     3 C    1.018
     6   7 N    3.033 --     7 C    1.573     5 C    1.186
     7   6 C    3.935 --     6 N    1.573    21 N    1.175     8 C    0.974
     8   6 C    3.916 --    10 C    0.987     9 C    0.985     7 C    0.974
                            11 N    0.904
     9   6 C    3.984 --    32 H    0.985     8 C    0.985    30 H    0.982
                            31 H    0.981
    10   6 C    3.986 --     8 C    0.987    35 H    0.981    33 H    0.981
                            34 H    0.978
    11   7 N    3.398 --    12 C    1.305     8 C    0.904    36 H    0.883
                            13 O    0.199
    12   6 C    3.930 --    13 O    1.590    11 N    1.305    14 C    0.955
    13   8 O    1.938 --    12 C    1.590    11 N    0.199
    14   6 C    3.842 --    19 N    1.458    15 O    1.125    12 C    0.955
    15   8 O    2.369 --    14 C    1.125    16 C    1.067
    16   6 C    3.837 --    18 N    1.574    15 O    1.067    17 C    1.044
    17   6 C    3.969 --    16 C    1.044    38 H    0.976    37 H    0.953
                            39 H    0.944
    18   7 N    2.964 --    16 C    1.574    19 N    1.156
    19   7 N    3.661 --    14 C    1.458    18 N    1.156    20 C    0.909
    20   6 C    3.877 --    42 H    0.973    40 H    0.967    41 H    0.961
                            19 N    0.909
    21   7 N    3.503 --     7 C    1.175    23 C    1.104    22 C    0.933
                            24 O    0.136
    22   6 C    3.925 --    43 H    0.979    45 H    0.976    44 H    0.974
                            21 N    0.933
    23   6 C    3.911 --    24 O    1.590    21 N    1.104    25 C    1.068
    24   8 O    1.906 --    23 C    1.590    21 N    0.136
    25   6 C    3.923 --     5 C    1.476    26 O    1.127    23 C    1.068
    26   8 O    2.094 --    25 C    1.127    46 H    0.777
    27   1 H    1.006 --     1 C    0.979
    28   1 H    1.010 --     1 C    0.986
    29   1 H    1.006 --     1 C    0.979
    30   1 H    1.008 --     9 C    0.982
    31   1 H    1.010 --     9 C    0.981
    32   1 H    0.999 --     9 C    0.985
    33   1 H    0.995 --    10 C    0.981
    34   1 H    0.999 --    10 C    0.978
    35   1 H    0.998 --    10 C    0.981
    36   1 H    0.922 --    11 N    0.883
    37   1 H    0.988 --    17 C    0.953
    38   1 H    0.990 --    17 C    0.976
    39   1 H    0.988 --    17 C    0.944
    40   1 H    0.991 --    20 C    0.967
    41   1 H    0.990 --    20 C    0.961
    42   1 H    1.004 --    20 C    0.973
    43   1 H    1.007 --    22 C    0.979
    44   1 H    1.005 --    22 C    0.974
    45   1 H    1.002 --    22 C    0.976
    46   1 H    0.851 --    26 O    0.777
 ---------------------------------------------------------------------------

           -------------------------------------------------
          | TOTAL ENERGY              -86.370674764928 Eh   |
          | GRADIENT NORM               0.000327675257 Eh/α |
          | HOMO-LUMO GAP               1.491014955241 eV   |
           -------------------------------------------------

 * finished run on 2023/06/20 at 15:40:56.216
