   * xtb version 6.5.1 (579679a) compiled by 'ehlert@majestix' on 2022-07-11
          program call               : /lustre/hpc/kemi/ree/PhD/git/ReactivityQM/dep/xtb-6.5.1/bin/xtb --gfn 1 /lustre/hpc/kemi/ree/PhD/git/ReactivityQM/calculations/R02/reac01prodN05/conf10/R02_reac01prodN05_conf10_gfn1.xyz --opt --vfukui --chrg 1 --uhf 0 --alpb DMSO

   ID    Z sym.   atoms
    1    6 C      1, 3, 5, 6, 8, 11-14, 16, 18, 21, 22, 25
    2    8 O      2, 4, 7, 9, 17, 23
    3    7 N      10, 15, 19, 20, 24
    4    1 H      26-43

      * Solvation model:               ALPB
        Solvent                        DMSO
        Solvent mass                       7.8130E+01 g/mol
          :  Hamiltonian                  GFN1-xTB          :
 * total energy  :   -83.1375298 Eh     change       -0.1507772E-10 Eh
 * total energy  :   -83.1563823 Eh     change       -0.1885248E-01 Eh
 * total energy  :   -83.1632823 Eh     change       -0.6899989E-02 Eh
 * total energy  :   -83.1651137 Eh     change       -0.1831420E-02 Eh
 * total energy  :   -83.1664002 Eh     change       -0.1286539E-02 Eh
 * total energy  :   -83.1671665 Eh     change       -0.7662564E-03 Eh
 * total energy  :   -83.1677254 Eh     change       -0.5589495E-03 Eh
 * total energy  :   -83.1680606 Eh     change       -0.3351355E-03 Eh
 * total energy  :   -83.1682990 Eh     change       -0.2383852E-03 Eh
 * total energy  :   -83.1685077 Eh     change       -0.2087156E-03 Eh
 * total energy  :   -83.1701296 Eh     change       -0.1129348E-04 Eh
 * total energy  :   -83.1701641 Eh     change       -0.3447066E-04 Eh
 * total energy  :   -83.1701827 Eh     change       -0.1864441E-04 Eh
 * total energy  :   -83.1702005 Eh     change       -0.1772706E-04 Eh
 * total energy  :   -83.1702092 Eh     change       -0.8767385E-05 Eh
 * total energy  :   -83.1702226 Eh     change       -0.1339110E-04 Eh
 * total energy  :   -83.1702284 Eh     change       -0.5803022E-05 Eh
 * total energy  :   -83.1702376 Eh     change       -0.9142857E-05 Eh
 * total energy  :   -83.1702406 Eh     change       -0.3049927E-05 Eh
   *** GEOMETRY OPTIMIZATION CONVERGED AFTER 36 ITERATIONS ***

 final structure:
================
43
 xtb: 6.5.1 (579679a)
C           -4.31436794237328        2.99919257709911        1.83098477909036
O           -3.92276145748216        1.89994718090670        0.98942967705872
C           -2.63577529990203        1.72706009487705        0.79344793330305
O           -1.76693674044485        2.41730709046334        1.26376285166573
C           -2.36153765999238        0.56778529778006       -0.14018772690249
C           -3.14868463981459        0.32148609295631       -1.22543329609468
O           -4.24311462935768        1.01342732665129       -1.49973683065416
C           -2.78787595498485       -0.72599252193150       -2.18018087220936
O           -3.44728958698067       -1.02717668562829       -3.14503828399394
N           -1.57728952395515       -1.34121691278105       -1.88530333514427
C           -0.79789498180870       -1.09455646945944       -0.82092517718735
C            0.47647939081339       -1.92297617228112       -0.70673313289344
C            0.17391576101819       -3.12718623913824        0.20245635598126
C            0.96586422306988       -2.42022121069271       -2.07575196497422
N            1.51817739552017       -1.05539323157035       -0.16146522503970
C            2.73862863191061       -1.52547132741506        0.23548102488198
O            3.03654495934863       -2.69554563202301        0.35502203708449
C            3.66910017043806       -0.42088591485263        0.54988528730975
N            4.90089757163082       -0.50417001577463        0.94425230150454
N            5.35184723159482        0.76908715017889        1.09801534804035
C            4.36826473006363        1.55653748323629        0.78896757358390
C            4.35407541024574        3.03473730112549        0.79504719028721
O            3.27149398621743        0.86628193280581        0.43256448139969
N           -1.20542583910050       -0.19705694413119        0.06428455187341
C           -0.50543407648211        0.01703575144536        1.34283489035310
H           -5.39652602243090        3.07541283873241        1.74959285420591
H           -3.83263155644848        3.91708093491282        1.48938372384717
H           -4.01894987376252        2.79030523738016        2.86059227565654
H           -4.65332554186665        0.69958199702744       -2.32664168326236
H           -1.29323752221900       -2.03649615327245       -2.56399311677591
H           -0.70630506769387       -3.64163302585910       -0.17871509560703
H            1.01830668017355       -3.81354364647843        0.18993336114287
H           -0.01419088902035       -2.81612503696374        1.22715749287058
H            1.94764604600068       -2.87166116006742       -1.93628524044446
H            1.05643301897960       -1.59081418190235       -2.77389363292271
H            0.30169551392416       -3.17984252462345       -2.48333351461320
H            1.48102060310932       -0.09074904459451       -0.44864722651470
H            3.63925480730344        3.39541550057329        1.53499667250632
H            5.34650050757201        3.41092951747393        1.03412879608856
H            4.04260920437641        3.40550042190795       -0.18102120709300
H           -1.25121254266269        0.15566757360097        2.12117514686681
H            0.11862424458810        0.90491329643656        1.26165681403955
H            0.10339026088338       -0.84597654613661        1.57823214168955

          :  Hamiltonian                  GFN1-xTB          :
         :: total energy             -83.170240629472 Eh    ::
         :: gradient norm              0.000745317635 Eh/a0 ::
         :: HOMO-LUMO gap              2.647240758919 eV    ::
         :: SCC energy               -83.972872723367 Eh    ::
         :: -> Gsolv                  -0.122461820098 Eh    ::
         :: repulsion energy           0.830216377079 Eh    ::

    * Orbital Energies and Occupations

         #    Occupation            Energy/Eh            Energy/eV
      -------------------------------------------------------------
         1        2.0000           -0.8955510             -24.3692
       ...           ...                  ...                  ...
        55        2.0000           -0.5341953             -14.5362
        56        2.0000           -0.5341200             -14.5341
        57        2.0000           -0.5278727             -14.3641
        58        2.0000           -0.5232356             -14.2380
        59        2.0000           -0.5184749             -14.1084
        60        2.0000           -0.5145941             -14.0028
        61        2.0000           -0.5008487             -13.6288
        62        2.0000           -0.4904668             -13.3463
        63        2.0000           -0.4839376             -13.1686
        64        2.0000           -0.4812769             -13.0962
        65        2.0000           -0.4754698             -12.9382
        66        2.0000           -0.4623620             -12.5815
        67        2.0000           -0.4612494             -12.5512 (HOMO)
        68                         -0.3639651              -9.9040 (LUMO)
        69                         -0.3591485              -9.7729
        70                         -0.3262037              -8.8765
        71                         -0.2859301              -7.7806
        72                         -0.2648046              -7.2057
        73                         -0.2207762              -6.0076
        74                         -0.2127402              -5.7890
        75                         -0.1653346              -4.4990
        76                         -0.1575033              -4.2859
        77                         -0.1500717              -4.0837
        78                         -0.1466393              -3.9903
       ...                                ...                  ...
       136                          0.7262904              19.7634
      -------------------------------------------------------------
                  HL-Gap            0.0972843 Eh            2.6472 eV

Wiberg/Mayer (AO) data.
largest (>0.10) Wiberg bond orders for each atom

     #   Z sym  total        # sym  WBO       # sym  WBO       # sym  WBO
 ---------------------------------------------------------------------------
     1   6 C    3.846 --    26 H    0.984    27 H    0.979    28 H    0.978
                             2 O    0.873
     2   8 O    2.238 --     3 C    1.168     1 C    0.873     4 O    0.147
     3   6 C    3.866 --     4 O    1.666     2 O    1.168     5 C    0.960
     4   8 O    1.959 --     3 C    1.666     2 O    0.147
     5   6 C    3.919 --     6 C    1.535    24 N    1.076     3 C    0.960
     6   6 C    3.927 --     5 C    1.535     7 O    1.147     8 C    1.037
     7   8 O    2.117 --     6 C    1.147    29 H    0.789
     8   6 C    3.901 --     9 O    1.661    10 N    1.076     6 C    1.037
     9   8 O    1.969 --     8 C    1.661    10 N    0.118
    10   7 N    3.492 --    11 C    1.276     8 C    1.076    30 H    0.860
                             9 O    0.118
    11   6 C    3.896 --    24 N    1.406    10 N    1.276    12 C    0.977
    12   6 C    3.930 --    14 C    0.983    11 C    0.977    13 C    0.964
                            15 N    0.941
    13   6 C    3.977 --    31 H    0.983    33 H    0.977    32 H    0.970
                            12 C    0.964
    14   6 C    3.981 --    12 C    0.983    35 H    0.983    36 H    0.977
                            34 H    0.973
    15   7 N    3.299 --    16 C    1.192    12 C    0.941    37 H    0.891
                            17 O    0.161
    16   6 C    3.908 --    17 O    1.623    15 N    1.192    18 C    1.003
    17   8 O    1.934 --    16 C    1.623    15 N    0.161
    18   6 C    3.876 --    19 N    1.617    23 O    1.043    16 C    1.003
    19   7 N    3.005 --    18 C    1.617    20 N    1.206
    20   7 N    2.984 --    21 C    1.604    19 N    1.206
    21   6 C    3.865 --    20 N    1.604    23 O    1.071    22 C    1.033
    22   6 C    3.985 --    21 C    1.033    39 H    0.982    40 H    0.963
                            38 H    0.960
    23   8 O    2.315 --    21 C    1.071    18 C    1.043
    24   7 N    3.582 --    11 C    1.406     5 C    1.076    25 C    0.901
    25   6 C    3.885 --    41 H    0.973    43 H    0.973    42 H    0.965
                            24 N    0.901
    26   1 H    1.006 --     1 C    0.984
    27   1 H    1.003 --     1 C    0.979
    28   1 H    1.002 --     1 C    0.978
    29   1 H    0.820 --     7 O    0.789
    30   1 H    0.912 --    10 N    0.860
    31   1 H    0.997 --    13 C    0.983
    32   1 H    1.006 --    13 C    0.970
    33   1 H    0.998 --    13 C    0.977
    34   1 H    0.998 --    14 C    0.973
    35   1 H    0.994 --    14 C    0.983
    36   1 H    0.994 --    14 C    0.977
    37   1 H    0.933 --    15 N    0.891
    38   1 H    0.996 --    22 C    0.960
    39   1 H    0.997 --    22 C    0.982
    40   1 H    0.996 --    22 C    0.963
    41   1 H    0.996 --    25 C    0.973
    42   1 H    1.004 --    25 C    0.965
    43   1 H    1.006 --    25 C    0.973
 ---------------------------------------------------------------------------

           -------------------------------------------------
          | TOTAL ENERGY              -83.170240629472 Eh   |
          | GRADIENT NORM               0.000745317635 Eh/α |
          | HOMO-LUMO GAP               2.647240758919 eV   |
           -------------------------------------------------

 * finished run on 2023/06/20 at 15:23:51.272
