   * xtb version 6.5.1 (579679a) compiled by 'ehlert@majestix' on 2022-07-11
          program call               : /lustre/hpc/kemi/ree/PhD/git/ReactivityQM/dep/xtb-6.5.1/bin/xtb --gfn 1 /lustre/hpc/kemi/ree/PhD/git/ReactivityQM/calculations/RaltegravirCLI/reac02prodE04/conf15/RaltegravirCLI_reac02prodE04_conf15_gfn1.xyz --opt --vfukui --chrg -1 --uhf 0 --alpb DMSO

   ID    Z sym.   atoms
    1    6 C      1, 3, 5, 7-9, 12-16, 18, 19, 21-24
    2    7 N      2, 11, 20, 25
    3    8 O      4, 6, 10
    4    9 F      17
    5    1 H      26-47

      * Solvation model:               ALPB
        Solvent                        DMSO
        Solvent mass                       7.8130E+01 g/mol
          :  Hamiltonian                  GFN1-xTB          :
 * total energy  :   -80.1902153 Eh     change       -0.2614797E-11 Eh
 * total energy  :   -80.2040939 Eh     change       -0.1387864E-01 Eh
 * total energy  :   -80.2078964 Eh     change       -0.3802481E-02 Eh
 * total energy  :   -80.2084915 Eh     change       -0.5950806E-03 Eh
 * total energy  :   -80.2089943 Eh     change       -0.5028377E-03 Eh
 * total energy  :   -80.2091919 Eh     change       -0.1975852E-03 Eh
 * total energy  :   -80.2094370 Eh     change       -0.2450365E-03 Eh
 * total energy  :   -80.2096335 Eh     change       -0.1965877E-03 Eh
 * total energy  :   -80.2097975 Eh     change       -0.1639309E-03 Eh
 * total energy  :   -80.2099387 Eh     change       -0.1412584E-03 Eh
 * total energy  :   -80.2116446 Eh     change       -0.7514139E-05 Eh
 * total energy  :   -80.2116566 Eh     change       -0.1207121E-04 Eh
 * total energy  :   -80.2116728 Eh     change       -0.1619391E-04 Eh
 * total energy  :   -80.2116881 Eh     change       -0.1529020E-04 Eh
 * total energy  :   -80.2117003 Eh     change       -0.1217762E-04 Eh
 * total energy  :   -80.2117105 Eh     change       -0.1024016E-04 Eh
 * total energy  :   -80.2117190 Eh     change       -0.8509700E-05 Eh
 * total energy  :   -80.2117254 Eh     change       -0.6347553E-05 Eh
 * total energy  :   -80.2117299 Eh     change       -0.4459379E-05 Eh
   *** GEOMETRY OPTIMIZATION CONVERGED AFTER 63 ITERATIONS ***

 final structure:
================
47
 xtb: 6.5.1 (579679a)
C           -3.18022174053919       -0.99224753685384       -1.93878745610608
N           -2.14923501666415       -0.05694349064965       -1.50621946209026
C           -1.05063899199087        0.08344358756644       -2.46695591898551
O           -1.11284230405836       -0.60723323490495       -3.53429985535507
C           -0.07670037420098        0.95325512926713       -2.10896556225334
O            1.02427438144504        1.15231970129115       -2.98900901590199
C           -0.07442077320159        1.76567279460983       -0.84647986247680
C           -0.29983439950081        3.27185076458693       -1.11834070220155
C            1.29722103198702        1.61313498759400       -0.15340649579149
O            2.28255721989492        2.29501732302280       -0.42171097983207
N            1.33477509495344        0.62263508772077        0.76157344143754
C            2.52291352854367        0.34861318971765        1.55322651079336
C            3.34140278296299       -0.75830422874300        0.92229655016514
C            3.36907791365928       -2.03022086208127        1.48683140245001
C            4.09894177349149       -3.05271797527222        0.89400212505615
C            4.79007079072199       -2.77192031479350       -0.26968606528429
F            5.49971611552669       -3.75606356633200       -0.85233713123353
C            4.78699826647150       -1.51915312004791       -0.85728276522590
C            4.05410196589281       -0.51023565579963       -0.25020679897986
N           -1.09355598171712        1.29318374080086        0.08599320769381
C           -2.03344781427191        0.48088386791928       -0.26910091879178
C           -3.01260190966250        0.12074181206061        0.85885912994514
C           -2.73665001323429        1.00776010192057        2.08552064566166
C           -2.81959857315880       -1.34658384388778        1.26506854747254
N           -4.39917479150736        0.32278289453711        0.42853733535256
H           -3.39479440889061       -0.80833395460662       -2.99538909849182
H           -2.83403483112885       -2.02629593103490       -1.83709112025168
H           -4.09478993683353       -0.85511220036721       -1.36738877984234
H            0.80329102869050        0.65310493041224       -3.79044686653843
H            0.52184701934876        3.66096855498135       -1.72017987033822
H           -1.23654233624910        3.41142617880255       -1.65594514629115
H           -0.34664833644275        3.81985744727362       -0.17730216752971
H            0.47027516706177        0.17553925453439        1.03397317224274
H            2.20992970525482        0.06629848686417        2.56110856084916
H            3.11843127289017        1.26795874425949        1.60809029096374
H            2.82228730796574       -2.22906883869441        2.40107970608181
H            4.13167040618357       -4.04423436325650        1.32519851563834
H            5.34933043774960       -1.34295308889244       -1.76532823802992
H            4.03721354776436        0.48259957441640       -0.68847940104817
H           -2.81820616036725        2.06040089731813        1.81658316850298
H           -3.46165777247273        0.78506682400494        2.86716527139859
H           -1.73321225928412        0.82501290061454        2.46906904103604
H           -3.43141293576022       -1.57270872638723        2.13798240018980
H           -3.10685475289322       -2.02331727708976        0.46238210856481
H           -1.77423230693078       -1.52404895651584        1.51851787151388
H           -4.57988596763941        1.31423179700738        0.33559560960672
H           -5.01513306986380       -0.02606240688913        1.14880106625613

          :  Hamiltonian                  GFN1-xTB          :
         :: total energy             -80.211729850459 Eh    ::
         :: gradient norm              0.000378307176 Eh/a0 ::
         :: HOMO-LUMO gap              0.889332642139 eV    ::
         :: SCC energy               -81.073864377990 Eh    ::
         :: -> Gsolv                  -0.114277384917 Eh    ::
         :: repulsion energy           0.893891146222 Eh    ::

    * Orbital Energies and Occupations

         #    Occupation            Energy/Eh            Energy/eV
      -------------------------------------------------------------
         1        2.0000           -0.8587182             -23.3669
       ...           ...                  ...                  ...
        56        2.0000           -0.4598402             -12.5129
        57        2.0000           -0.4541286             -12.3575
        58        2.0000           -0.4503337             -12.2542
        59        2.0000           -0.4449209             -12.1069
        60        2.0000           -0.4398500             -11.9689
        61        2.0000           -0.4314000             -11.7390
        62        2.0000           -0.4162386             -11.3264
        63        2.0000           -0.4148221             -11.2879
        64        2.0000           -0.3950290             -10.7493
        65        2.0000           -0.3783116             -10.2944
        66        2.0000           -0.3713830             -10.1058
        67        2.0000           -0.3638055              -9.8997
        68        2.0000           -0.2995160              -8.1502 (HOMO)
        69                         -0.2668336              -7.2609 (LUMO)
        70                         -0.2596947              -7.0667
        71                         -0.2171394              -5.9087
        72                         -0.2087214              -5.6796
        73                         -0.1389982              -3.7823
        74                         -0.1232117              -3.3528
        75                         -0.1172427              -3.1903
        76                         -0.1121460              -3.0516
        77                         -0.1050576              -2.8588
        78                         -0.0983422              -2.6760
        79                         -0.0975170              -2.6536
       ...                                ...                  ...
       144                          0.6916651              18.8212
      -------------------------------------------------------------
                  HL-Gap            0.0326824 Eh            0.8893 eV

Wiberg/Mayer (AO) data.
largest (>0.10) Wiberg bond orders for each atom

     #   Z sym  total        # sym  WBO       # sym  WBO       # sym  WBO
 ---------------------------------------------------------------------------
     1   6 C    3.958 --    27 H    0.981    26 H    0.980    28 H    0.976
                             2 N    0.955
     2   7 N    3.384 --    21 C    1.225     1 C    0.955     3 C    0.897
                            20 N    0.172
     3   6 C    3.917 --     5 C    1.555     4 O    1.329     2 N    0.897
     4   8 O    1.689 --     3 C    1.329     5 C    0.179
     5   6 C    3.794 --     3 C    1.555     7 C    0.973     6 O    0.938
                             4 O    0.179
     6   8 O    1.907 --     5 C    0.938    29 H    0.863
     7   6 C    3.965 --    20 N    0.973     5 C    0.973     8 C    0.967
                             9 C    0.926
     8   6 C    3.996 --    31 H    0.988    32 H    0.988    30 H    0.986
                             7 C    0.967
     9   6 C    3.868 --    10 O    1.577    11 N    1.256     7 C    0.926
    10   8 O    1.872 --     9 C    1.577    11 N    0.154
    11   7 N    3.324 --     9 C    1.256    12 C    0.948    33 H    0.898
                            10 O    0.154
    12   6 C    3.959 --    13 C    0.995    34 H    0.978    35 H    0.968
                            11 N    0.948
    13   6 C    3.988 --    14 C    1.424    19 C    1.412    12 C    0.995
    14   6 C    3.994 --    15 C    1.437    13 C    1.424    36 H    0.971
                            18 C    0.109
    15   6 C    3.992 --    14 C    1.437    16 C    1.406    37 H    0.970
                            19 C    0.112
    16   6 C    3.857 --    15 C    1.406    18 C    1.398    17 F    0.919
    17   9 F    1.045 --    16 C    0.919
    18   6 C    3.992 --    19 C    1.448    16 C    1.398    38 H    0.970
                            14 C    0.109
    19   6 C    3.992 --    18 C    1.448    13 C    1.412    39 H    0.969
                            15 C    0.112
    20   7 N    2.972 --    21 C    1.606     7 C    0.973     2 N    0.172
    21   6 C    3.946 --    20 N    1.606     2 N    1.225    22 C    0.963
    22   6 C    3.964 --    23 C    0.993    24 C    0.991    25 N    0.976
                            21 C    0.963
    23   6 C    3.997 --    22 C    0.993    41 H    0.986    40 H    0.984
                            42 H    0.983
    24   6 C    3.996 --    22 C    0.991    45 H    0.986    43 H    0.985
                            44 H    0.982
    25   7 N    2.991 --    22 C    0.976    47 H    0.948    46 H    0.947
    26   1 H    1.027 --     1 C    0.980
    27   1 H    1.016 --     1 C    0.981
    28   1 H    1.034 --     1 C    0.976
    29   1 H    0.902 --     6 O    0.863
    30   1 H    1.015 --     8 C    0.986
    31   1 H    1.016 --     8 C    0.988
    32   1 H    1.011 --     8 C    0.988
    33   1 H    0.975 --    11 N    0.898
    34   1 H    1.004 --    12 C    0.978
    35   1 H    1.013 --    12 C    0.968
    36   1 H    1.001 --    14 C    0.971
    37   1 H    0.999 --    15 C    0.970
    38   1 H    0.999 --    18 C    0.970
    39   1 H    1.013 --    19 C    0.969
    40   1 H    1.018 --    23 C    0.984
    41   1 H    1.006 --    23 C    0.986
    42   1 H    1.020 --    23 C    0.983
    43   1 H    1.003 --    24 C    0.985
    44   1 H    1.007 --    24 C    0.982
    45   1 H    1.006 --    24 C    0.986
    46   1 H    0.964 --    25 N    0.947
    47   1 H    0.962 --    25 N    0.948
 ---------------------------------------------------------------------------

           -------------------------------------------------
          | TOTAL ENERGY              -80.211729850459 Eh   |
          | GRADIENT NORM               0.000378307176 Eh/α |
          | HOMO-LUMO GAP               0.889332642139 eV   |
           -------------------------------------------------

 * finished run on 2023/06/20 at 15:00:20.498
