   * xtb version 6.5.1 (579679a) compiled by 'ehlert@majestix' on 2022-07-11
          program call               : /lustre/hpc/kemi/ree/PhD/git/ReactivityQM/dep/xtb-6.5.1/bin/xtb --gfn 1 /lustre/hpc/kemi/ree/PhD/git/ReactivityQM/calculations/R03/reac02prodN12/conf15/R03_reac02prodN12_conf15_gfn1.xyz --opt --vfukui --chrg 1 --uhf 0 --alpb DMSO

   ID    Z sym.   atoms
    1    6 C      1, 3, 5, 7-10, 12, 14, 15, 18, 19, 22, 23, 25
    2    8 O      2, 4, 13, 20, 24, 26
    3    7 N      6, 11, 16, 17, 21
    4    1 H      27-46

      * Solvation model:               ALPB
        Solvent                        DMSO
        Solvent mass                       7.8130E+01 g/mol
          :  Hamiltonian                  GFN1-xTB          :
 * total energy  :   -86.2913414 Eh     change       -0.2215472E-10 Eh
 * total energy  :   -86.3054542 Eh     change       -0.1411281E-01 Eh
 * total energy  :   -86.3109678 Eh     change       -0.5513600E-02 Eh
 * total energy  :   -86.3119387 Eh     change       -0.9709615E-03 Eh
 * total energy  :   -86.3126062 Eh     change       -0.6674493E-03 Eh
 * total energy  :   -86.3129151 Eh     change       -0.3089602E-03 Eh
 * total energy  :   -86.3131951 Eh     change       -0.2799690E-03 Eh
 * total energy  :   -86.3134039 Eh     change       -0.2087379E-03 Eh
 * total energy  :   -86.3135126 Eh     change       -0.1087108E-03 Eh
 * total energy  :   -86.3135739 Eh     change       -0.6134061E-04 Eh
 * total energy  :   -86.3137128 Eh     change       -0.2622451E-04 Eh
 * total energy  :   -86.3137120 Eh     change        0.7152619E-06 Eh
 * total energy  :   -86.3137256 Eh     change       -0.1360268E-04 Eh
 * total energy  :   -86.3137407 Eh     change       -0.1500662E-04 Eh
 * total energy  :   -86.3137532 Eh     change       -0.1255389E-04 Eh
 * total energy  :   -86.3137634 Eh     change       -0.1020795E-04 Eh
 * total energy  :   -86.3137712 Eh     change       -0.7823335E-05 Eh
 * total energy  :   -86.3137770 Eh     change       -0.5726972E-05 Eh
 * total energy  :   -86.3137800 Eh     change       -0.3010398E-05 Eh
   *** GEOMETRY OPTIMIZATION CONVERGED AFTER 22 ITERATIONS ***

 final structure:
================
46
 xtb: 6.5.1 (579679a)
C            5.38933385201685        2.68444941816165       -0.26579293071868
O            4.31764827768330        1.74564847159133       -0.12450624578778
C            4.50647801289379        0.54245621335561       -0.66598217934680
O            5.51626310412798        0.22613000338007       -1.24853631102049
C            3.32965978614064       -0.35285269445133       -0.45812412950989
N            2.26051341341374        0.19041478586006        0.19992000466097
C            1.19562238546710       -0.49573011059959        0.44988300221269
C            0.10916746273336        0.24791263098348        1.21323720658850
C            0.14632353029302       -0.15019049252433        2.69312259292301
C            0.32072853633865        1.75918760374248        1.06617335591536
N           -1.19563807974411       -0.07781687301366        0.58908392441146
C           -2.35097132638075        0.24070776580769        1.14298654992373
O           -2.58614772136008        0.72801692234315        2.21147286486180
C           -3.61231079020701       -0.14180093518010        0.19618333630317
C           -4.73507347614688       -0.63537608321045        1.10309109638015
N           -3.22197492769386       -1.04403437043358       -0.80755397831375
N           -3.29072942045333       -0.48626254372579       -1.94336139773285
C           -3.75862961594938        0.79107684205936       -1.75276426717143
C           -4.00459930590804        1.76594699311076       -2.80961359819353
O           -3.96385853676787        1.02633751509847       -0.50994260495494
N            1.07851357484274       -1.81650145831770        0.09558756559067
C           -0.07658040575011       -2.67016753566428        0.37801326355021
C            2.08314737890673       -2.45021815909784       -0.62067665491965
O            1.98613600702562       -3.61326841990649       -0.99036094329451
C            3.26997200495841       -1.64898678150408       -0.89103877168264
O            4.24153009317985       -2.26765646353577       -1.56244381172787
H            6.29220692809109        2.29823390533321        0.21397916826167
H            5.06399223443904        3.60112603584326        0.22151477875432
H            5.58993176601287        2.86728003045849       -1.32418728177244
H            1.17030247054205       -0.05176532121847        3.05150870075700
H           -0.49344335338895        0.50714971779764        3.27826730773551
H           -0.18035062536041       -1.17668131375403        2.83876945166013
H           -0.48550283925835        2.28988496791378        1.56873882216208
H            1.27251816854567        2.04065230064459        1.51331344723118
H            0.33040744428813        2.03281293838741        0.01302837678635
H           -1.18758422127688       -0.39084733888964       -0.36832731017433
H           -5.62574619410395       -0.80807619867297        0.50367603783808
H           -4.92943063385818        0.12686339395850        1.85595182273683
H           -4.42165140989566       -1.55951560876740        1.58294281196847
H           -4.91301761931259        1.46830090037977       -3.34341147584955
H           -4.14463328736177        2.76177066225574       -2.39433404392455
H           -3.19012333191511        1.74759426001461       -3.53439253542354
H            0.29301623232363       -3.67770105388464        0.57038249786252
H           -0.73195427417540       -2.68927748696604       -0.49222913299513
H           -0.62041096598869       -2.30671229785392        1.24044348675845
H            3.95694969799757       -3.17851673730897       -1.76399286931827

          :  Hamiltonian                  GFN1-xTB          :
         :: total energy             -86.313779978123 Eh    ::
         :: gradient norm              0.000316427022 Eh/a0 ::
         :: HOMO-LUMO gap              0.286419722713 eV    ::
         :: SCC energy               -87.144177462056 Eh    ::
         :: -> Gsolv                  -0.119640941024 Eh    ::
         :: repulsion energy           0.860530130386 Eh    ::

    * Orbital Energies and Occupations

         #    Occupation            Energy/Eh            Energy/eV
      -------------------------------------------------------------
         1        2.0000           -0.9368708             -25.4936
       ...           ...                  ...                  ...
        58        2.0000           -0.5324752             -14.4894
        59        2.0000           -0.5273578             -14.3501
        60        2.0000           -0.5220893             -14.2068
        61        2.0000           -0.5187874             -14.1169
        62        2.0000           -0.5169892             -14.0680
        63        2.0000           -0.5064704             -13.7818
        64        2.0000           -0.5013228             -13.6417
        65        2.0000           -0.4964083             -13.5080
        66        2.0000           -0.4923293             -13.3970
        67        2.0000           -0.4867159             -13.2442
        68        2.0000           -0.4721882             -12.8489
        69        2.0000           -0.4582226             -12.4689
        70        1.9922           -0.4407290             -11.9928 (HOMO)
        71        0.0078           -0.4302032             -11.7064 (LUMO)
        72                         -0.3345523              -9.1036
        73                         -0.3330455              -9.0626
        74                         -0.3075106              -8.3678
        75                         -0.2986573              -8.1269
        76                         -0.2487925              -6.7700
        77                         -0.1780082              -4.8438
        78                         -0.1681779              -4.5764
        79                         -0.1582341              -4.3058
        80                         -0.1536862              -4.1820
        81                         -0.1437751              -3.9123
       ...                                ...                  ...
       144                          0.7369320              20.0529
      -------------------------------------------------------------
                  HL-Gap            0.0105257 Eh            0.2864 eV

Wiberg/Mayer (AO) data.
largest (>0.10) Wiberg bond orders for each atom

     #   Z sym  total        # sym  WBO       # sym  WBO       # sym  WBO
 ---------------------------------------------------------------------------
     1   6 C    3.869 --    28 H    0.986    29 H    0.979    27 H    0.979
                             2 O    0.895
     2   8 O    2.201 --     3 C    1.115     1 C    0.895     4 O    0.136
     3   6 C    3.853 --     4 O    1.664     2 O    1.115     5 C    0.996
     4   8 O    1.929 --     3 C    1.664     2 O    0.136
     5   6 C    3.957 --    25 C    1.488     6 N    1.185     3 C    0.996
     6   7 N    3.031 --     7 C    1.579     5 C    1.185
     7   6 C    3.933 --     6 N    1.579    21 N    1.166     8 C    0.974
     8   6 C    3.906 --    10 C    0.989     9 C    0.984     7 C    0.974
                            11 N    0.883
     9   6 C    3.982 --     8 C    0.984    30 H    0.981    32 H    0.977
                            31 H    0.975
    10   6 C    3.986 --     8 C    0.989    35 H    0.984    33 H    0.983
                            34 H    0.980
    11   7 N    3.383 --    12 C    1.349    36 H    0.884     8 C    0.883
                            13 O    0.181
    12   6 C    3.906 --    13 O    1.679    11 N    1.349    14 C    0.733
    13   8 O    2.081 --    12 C    1.679    11 N    0.181
    14   6 C    3.834 --    16 N    1.110    15 C    0.923    20 O    0.900
                            12 C    0.733
    15   6 C    3.949 --    39 H    0.978    37 H    0.976    38 H    0.972
                            14 C    0.923
    16   7 N    3.011 --    17 N    1.635    14 C    1.110
    17   7 N    3.013 --    16 N    1.635    18 C    1.199
    18   6 C    3.803 --    20 O    1.296    17 N    1.199    19 C    1.078
    19   6 C    3.963 --    18 C    1.078    41 H    0.968    42 H    0.941
                            40 H    0.906
    20   8 O    2.385 --    18 C    1.296    14 C    0.900
    21   7 N    3.503 --     7 C    1.166    23 C    1.122    22 C    0.927
                            24 O    0.134
    22   6 C    3.919 --    45 H    0.980    44 H    0.974    43 H    0.971
                            21 N    0.927
    23   6 C    3.911 --    24 O    1.569    21 N    1.122    25 C    1.070
    24   8 O    1.910 --    23 C    1.569    21 N    0.134
    25   6 C    3.917 --     5 C    1.488    26 O    1.120    23 C    1.070
    26   8 O    2.095 --    25 C    1.120    46 H    0.803
    27   1 H    1.006 --     1 C    0.979
    28   1 H    1.010 --     1 C    0.986
    29   1 H    1.006 --     1 C    0.979
    30   1 H    0.998 --     9 C    0.981
    31   1 H    1.003 --     9 C    0.975
    32   1 H    0.999 --     9 C    0.977
    33   1 H    0.999 --    10 C    0.983
    34   1 H    1.010 --    10 C    0.980
    35   1 H    1.004 --    10 C    0.984
    36   1 H    0.936 --    11 N    0.884
    37   1 H    0.990 --    15 C    0.976
    38   1 H    0.996 --    15 C    0.972
    39   1 H    0.991 --    15 C    0.978
    40   1 H    0.973 --    19 C    0.906
    41   1 H    0.985 --    19 C    0.968
    42   1 H    0.982 --    19 C    0.941
    43   1 H    1.002 --    22 C    0.971
    44   1 H    1.003 --    22 C    0.974
    45   1 H    1.007 --    22 C    0.980
    46   1 H    0.843 --    26 O    0.803
 ---------------------------------------------------------------------------

           -------------------------------------------------
          | TOTAL ENERGY              -86.313779978123 Eh   |
          | GRADIENT NORM               0.000316427022 Eh/α |
          | HOMO-LUMO GAP               0.286419722713 eV   |
           -------------------------------------------------

 * finished run on 2023/06/20 at 15:47:39.401
