   * xtb version 6.5.1 (579679a) compiled by 'ehlert@majestix' on 2022-07-11
          program call               : /lustre/hpc/kemi/ree/PhD/git/ReactivityQM/dep/xtb-6.5.1/bin/xtb --gfn 1 /lustre/hpc/kemi/ree/PhD/git/ReactivityQM/calculations/R02oxygendeprot/reac01prodN03/conf02/R02oxygendeprot_reac01prodN03_conf02_gfn1.xyz --opt --vfukui --chrg 0 --uhf 0 --alpb DMSO

   ID    Z sym.   atoms
    1    6 C      1, 3, 5, 6, 8-11, 13, 15, 18, 19, 22, 24
    2    8 O      2, 4, 14, 20, 23, 25
    3    7 N      7, 12, 16, 17, 21
    4    1 H      26-42

      * Solvation model:               ALPB
        Solvent                        DMSO
        Solvent mass                       7.8130E+01 g/mol
          :  Hamiltonian                  GFN1-xTB          :
 * total energy  :   -82.9867831 Eh     change       -0.7318590E-11 Eh
 * total energy  :   -82.9971112 Eh     change       -0.1032804E-01 Eh
 * total energy  :   -83.0012961 Eh     change       -0.4184945E-02 Eh
 * total energy  :   -83.0021892 Eh     change       -0.8930785E-03 Eh
 * total energy  :   -83.0028044 Eh     change       -0.6152064E-03 Eh
 * total energy  :   -83.0031720 Eh     change       -0.3675413E-03 Eh
 * total energy  :   -83.0034350 Eh     change       -0.2630503E-03 Eh
 * total energy  :   -83.0036272 Eh     change       -0.1921609E-03 Eh
 * total energy  :   -83.0037860 Eh     change       -0.1588809E-03 Eh
 * total energy  :   -83.0039350 Eh     change       -0.1489449E-03 Eh
 * total energy  :   -83.0046172 Eh     change       -0.6616061E-05 Eh
 * total energy  :   -83.0046229 Eh     change       -0.5674818E-05 Eh
 * total energy  :   -83.0046285 Eh     change       -0.5577846E-05 Eh
 * total energy  :   -83.0046353 Eh     change       -0.6838222E-05 Eh
 * total energy  :   -83.0046438 Eh     change       -0.8506087E-05 Eh
 * total energy  :   -83.0046520 Eh     change       -0.8219782E-05 Eh
 * total energy  :   -83.0046623 Eh     change       -0.1030374E-04 Eh
 * total energy  :   -83.0046728 Eh     change       -0.1045558E-04 Eh
 * total energy  :   -83.0046776 Eh     change       -0.4852920E-05 Eh
   *** GEOMETRY OPTIMIZATION CONVERGED AFTER 37 ITERATIONS ***

 final structure:
================
42
 xtb: 6.5.1 (579679a)
C            2.75262926416804        2.05859452819955        2.38742387809441
O            2.48798491037068        1.14344504303444        1.31018076411222
C            2.45478401292540        1.65266976007889        0.09439732011037
O            2.65815699195494        2.80194053580403       -0.18455451147840
C            2.13872037858655        0.56397229732806       -0.97092867421942
C            1.92116583526137        1.24073943645423       -2.32477177237712
N            0.92140449917173       -0.09108498275047       -0.54873940600320
C            0.94365881731442       -1.18088879226306        0.09830107959767
C           -0.35197132147737       -1.82445801158508        0.55447868462045
C           -0.51769685545614       -3.18744616917349       -0.13326262292915
C           -0.36144522583644       -1.96230570950817        2.08374188790021
N           -1.42893693229004       -0.92874357970839        0.14304058084178
C           -2.73164408942146       -1.17503255029237        0.37117628333829
O           -3.18053487385460       -2.17548856707481        0.90904509371338
C           -3.61733059278699       -0.08034913626981       -0.10162452806940
N           -4.91009943351127       -0.02618338900695       -0.01740248628896
N           -5.29047490628047        1.16668593488169       -0.55486850858837
C           -4.20632836076166        1.76851645444457       -0.93317804736331
C           -4.08743799295696        3.09887651634024       -1.56844667263418
O           -3.11127454836055        1.03283781944504       -0.67659268734087
N            2.10757409850147       -1.86122735789090        0.42690232641020
C            3.34973837297540       -1.51880400398772       -0.01998495852378
O            4.34624218243343       -2.12488008231389        0.29949808549151
C            3.36362988935213       -0.32930967995090       -0.98672806898557
O            4.31523797401690       -0.11120308355336       -1.68945127371162
H            3.73313840940987        2.51815323407841        2.25040743228582
H            1.98392268256332        2.83247119957138        2.40878955922803
H            2.72824178149924        1.47038499850620        3.30114762704761
H            1.09739622110939        1.94599106985392       -2.24715330970336
H            1.68358509630941        0.49051736466550       -3.07552460936489
H            2.82566252663320        1.77215972588789       -2.61561439107058
H           -1.42939221662499       -3.66805507039533        0.21701794908415
H           -0.57528287525627       -3.05333956094797       -1.21218992007190
H            0.32956401388612       -3.82787832377407        0.10207450530767
H           -1.30985564165541       -2.38861328728369        2.40606578622939
H           -0.23347225380569       -0.98411579085611        2.54398729854750
H            0.44259845056774       -2.61852521630201        2.40886036578619
H           -1.14834465395724       -0.06570152269924       -0.30513278406288
H           -3.59475685793324        3.00814623415179       -2.53593146392038
H           -5.07693205217539        3.52963231206027       -1.70124468679292
H           -3.48420382963527        3.75654346357735       -0.94312326649429
H            2.06237810502813       -2.66864206077398        1.02991214225666

          :  Hamiltonian                  GFN1-xTB          :
         :: total energy             -83.004677642602 Eh    ::
         :: gradient norm              0.000421213664 Eh/a0 ::
         :: HOMO-LUMO gap              2.454588872377 eV    ::
         :: SCC energy               -83.792591603093 Eh    ::
         :: -> Gsolv                  -0.054464443759 Eh    ::
         :: repulsion energy           0.814897520819 Eh    ::

    * Orbital Energies and Occupations

         #    Occupation            Energy/Eh            Energy/eV
      -------------------------------------------------------------
         1        2.0000           -0.8654633             -23.5505
       ...           ...                  ...                  ...
        55        2.0000           -0.5118250             -13.9275
        56        2.0000           -0.5065459             -13.7838
        57        2.0000           -0.5049330             -13.7399
        58        2.0000           -0.5043360             -13.7237
        59        2.0000           -0.4972434             -13.5307
        60        2.0000           -0.4800984             -13.0641
        61        2.0000           -0.4721159             -12.8469
        62        2.0000           -0.4640877             -12.6285
        63        2.0000           -0.4618780             -12.5683
        64        2.0000           -0.4585574             -12.4780
        65        2.0000           -0.4517200             -12.2919
        66        2.0000           -0.4480670             -12.1925
        67        2.0000           -0.4426963             -12.0464 (HOMO)
        68                         -0.3524919              -9.5918 (LUMO)
        69                         -0.3101176              -8.4387
        70                         -0.2994441              -8.1483
        71                         -0.2715196              -7.3884
        72                         -0.2569827              -6.9929
        73                         -0.2273620              -6.1868
        74                         -0.1978698              -5.3843
        75                         -0.1464184              -3.9842
        76                         -0.1430544              -3.8927
        77                         -0.1426823              -3.8826
        78                         -0.1268318              -3.4513
       ...                                ...                  ...
       134                          0.7600512              20.6820
      -------------------------------------------------------------
                  HL-Gap            0.0902045 Eh            2.4546 eV

Wiberg/Mayer (AO) data.
largest (>0.10) Wiberg bond orders for each atom

     #   Z sym  total        # sym  WBO       # sym  WBO       # sym  WBO
 ---------------------------------------------------------------------------
     1   6 C    3.854 --    28 H    0.985    27 H    0.980    26 H    0.980
                             2 O    0.876
     2   8 O    2.213 --     3 C    1.150     1 C    0.876     4 O    0.139
     3   6 C    3.843 --     4 O    1.706     2 O    1.150     5 C    0.864
     4   8 O    1.986 --     3 C    1.706     2 O    0.139
     5   6 C    3.962 --     6 C    0.980     7 N    0.976    24 C    0.955
                             3 C    0.864
     6   6 C    3.983 --    30 H    0.984    29 H    0.984    31 H    0.982
                             5 C    0.980
     7   7 N    3.047 --     8 C    1.750     5 C    0.976
     8   6 C    3.928 --     7 N    1.750    21 N    1.073     9 C    0.980
     9   6 C    3.939 --     8 C    0.980    11 C    0.978    10 C    0.977
                            12 N    0.937
    10   6 C    3.986 --    33 H    0.985    34 H    0.984     9 C    0.977
                            32 H    0.977
    11   6 C    3.987 --    36 H    0.985    37 H    0.982     9 C    0.978
                            35 H    0.977
    12   7 N    3.358 --    13 C    1.267     9 C    0.937    38 H    0.877
                            14 O    0.179
    13   6 C    3.918 --    14 O    1.577    12 N    1.267    15 C    0.991
    14   8 O    1.898 --    13 C    1.577    12 N    0.179
    15   6 C    3.872 --    16 N    1.624    20 O    1.047    13 C    0.991
    16   7 N    2.999 --    15 C    1.624    17 N    1.198
    17   7 N    2.982 --    18 C    1.612    16 N    1.198
    18   6 C    3.869 --    17 N    1.612    20 O    1.072    19 C    1.031
    19   6 C    3.986 --    18 C    1.031    40 H    0.982    39 H    0.964
                            41 H    0.963
    20   8 O    2.315 --    18 C    1.072    15 C    1.047
    21   7 N    3.428 --    22 C    1.181     8 C    1.073    42 H    0.880
                            23 O    0.147
    22   6 C    3.891 --    23 O    1.677    21 N    1.181    24 C    0.907
    23   8 O    1.960 --    22 C    1.677    21 N    0.147
    24   6 C    3.848 --    25 O    1.811     5 C    0.955    22 C    0.907
    25   8 O    2.024 --    24 C    1.811
    26   1 H    1.004 --     1 C    0.980
    27   1 H    1.003 --     1 C    0.980
    28   1 H    1.008 --     1 C    0.985
    29   1 H    1.003 --     6 C    0.984
    30   1 H    1.000 --     6 C    0.984
    31   1 H    1.006 --     6 C    0.982
    32   1 H    1.008 --    10 C    0.977
    33   1 H    1.001 --    10 C    0.985
    34   1 H    0.999 --    10 C    0.984
    35   1 H    1.006 --    11 C    0.977
    36   1 H    1.001 --    11 C    0.985
    37   1 H    0.998 --    11 C    0.982
    38   1 H    0.955 --    12 N    0.877
    39   1 H    0.997 --    19 C    0.964
    40   1 H    0.998 --    19 C    0.982
    41   1 H    0.997 --    19 C    0.963
    42   1 H    0.928 --    21 N    0.880
 ---------------------------------------------------------------------------

           -------------------------------------------------
          | TOTAL ENERGY              -83.004677642602 Eh   |
          | GRADIENT NORM               0.000421213664 Eh/α |
          | HOMO-LUMO GAP               2.454588872377 eV   |
           -------------------------------------------------

 * finished run on 2023/06/21 at 17:19:14.641
