   * xtb version 6.5.1 (579679a) compiled by 'ehlert@majestix' on 2022-07-11
          program call               : /lustre/hpc/kemi/ree/PhD/git/ReactivityQM/dep/xtb-6.5.1/bin/xtb --gfn 1 /lustre/hpc/kemi/ree/PhD/git/ReactivityQM/calculations/R01/reac02prodN05/conf13/R01_reac02prodN05_conf13_gfn1.xyz --opt --vfukui --chrg 1 --uhf 0 --alpb DMSO

   ID    Z sym.   atoms
    1    6 C      1, 3, 4, 6, 8-11, 14, 16
    2    8 O      2, 5, 15, 17
    3    7 N      7, 12, 13
    4    1 H      18-33

      * Solvation model:               ALPB
        Solvent                        DMSO
        Solvent mass                       7.8130E+01 g/mol
          :  Hamiltonian                  GFN1-xTB          :
 * total energy  :   -57.7039104 Eh     change       -0.3469580E-10 Eh
 * total energy  :   -57.7185440 Eh     change       -0.1463364E-01 Eh
 * total energy  :   -57.7263552 Eh     change       -0.7811207E-02 Eh
 * total energy  :   -57.7293546 Eh     change       -0.2999445E-02 Eh
 * total energy  :   -57.7331350 Eh     change       -0.3780335E-02 Eh
 * total energy  :   -57.7371284 Eh     change       -0.3993453E-02 Eh
 * total energy  :   -57.7435216 Eh     change       -0.6393161E-02 Eh
 * total energy  :   -57.7479351 Eh     change       -0.4413479E-02 Eh
 * total energy  :   -57.7511357 Eh     change       -0.3200662E-02 Eh
 * total energy  :   -57.7538979 Eh     change       -0.2762152E-02 Eh
 * total energy  :   -57.7775325 Eh     change       -0.3037200E-04 Eh
 * total energy  :   -57.7775360 Eh     change       -0.3497918E-05 Eh
 * total energy  :   -57.7775636 Eh     change       -0.2766637E-04 Eh
 * total energy  :   -57.7775710 Eh     change       -0.7395478E-05 Eh
 * total energy  :   -57.7775815 Eh     change       -0.1045412E-04 Eh
 * total energy  :   -57.7775898 Eh     change       -0.8264221E-05 Eh
 * total energy  :   -57.7775939 Eh     change       -0.4114453E-05 Eh
 * total energy  :   -57.7776008 Eh     change       -0.6923311E-05 Eh
 * total energy  :   -57.7776039 Eh     change       -0.3097580E-05 Eh
   *** GEOMETRY OPTIMIZATION CONVERGED AFTER 122 ITERATIONS ***

 final structure:
================
33
 xtb: 6.5.1 (579679a)
C            4.03265632439673       -1.56279849136133       -1.43861781822435
O            3.27562079355124       -0.91984503045892       -0.39527359367787
C            3.45536660888405       -1.33757125059708        0.84008748500818
C            2.61744276751208       -0.56161219278027        1.83105199880512
O            4.20034953139732       -2.21071482037967        1.19345784505856
C            0.78232668524606        0.59865183145623        0.68947034183787
N           -0.30405876825607       -0.10193226818591        0.63060766237026
C           -1.35251662416676        0.43551622035223        0.06216157384837
C           -2.65124606553879       -0.31920196339099       -0.05173282065587
C           -3.08740544831418       -0.36860690432130       -1.52830083923850
C           -3.71481026108779        0.37611271753917        0.81052192754458
N           -2.42553803041120       -1.65379266680036        0.47027645960096
N           -1.23825473951843        1.70177811832377       -0.42061967320013
C           -0.10368102520962        2.48280326846653       -0.37261779151973
O           -0.03411861236343        3.60701488617214       -0.81057600851238
C            1.06627157184584        1.83027736137933        0.27075455860724
O            2.21336287051451        2.48190758679615        0.36787319960360
H            3.57519480087312       -2.52488280664366       -1.67471840950795
H            5.06401005902630       -1.70940621448518       -1.11281178823561
H            3.98889676847518       -0.90040907163252       -2.29996176748982
H            1.74443548208075       -0.05762770107256        1.24755284715991
H            2.16081922744250       -1.19801266340009        2.58384284061525
H            3.17532467814695        0.25849731183988        2.27859499714019
H           -2.30835473664957       -0.82819049291464       -2.13365567348392
H           -3.99485532153946       -0.96435654407931       -1.60744250929084
H           -3.28922495634585        0.63259129335415       -1.90435688957942
H           -3.40518854124796        0.36950999326141        1.85474884489738
H           -3.85963406604707        1.40384081405424        0.48411461685243
H           -4.65694157530325       -0.16075516146677        0.71531801407680
H           -1.75533219994797       -2.13455068666724       -0.11531022188534
H           -3.29488215008245       -2.16996655882018        0.44291818165655
H           -2.03179771423905        2.14055858156271       -0.86938797467191
H            2.15576466687470        3.36517450492206       -0.03797061549813

          :  Hamiltonian                  GFN1-xTB          :
         :: total energy             -57.777603896205 Eh    ::
         :: gradient norm              0.000744357160 Eh/a0 ::
         :: HOMO-LUMO gap              0.842835611572 eV    ::
         :: SCC energy               -58.378254932123 Eh    ::
         :: -> Gsolv                  -0.103169593606 Eh    ::
         :: repulsion energy           0.618290103986 Eh    ::

    * Orbital Energies and Occupations

         #    Occupation            Energy/Eh            Energy/eV
      -------------------------------------------------------------
         1        2.0000           -0.8780724             -23.8936
       ...           ...                  ...                  ...
        35        2.0000           -0.5469667             -14.8837
        36        2.0000           -0.5385555             -14.6548
        37        2.0000           -0.5365630             -14.6006
        38        2.0000           -0.5298687             -14.4185
        39        2.0000           -0.5293560             -14.4045
        40        2.0000           -0.5221911             -14.2095
        41        2.0000           -0.5195499             -14.1377
        42        2.0000           -0.5182728             -14.1029
        43        2.0000           -0.5099057             -13.8752
        44        2.0000           -0.5078020             -13.8180
        45        2.0000           -0.5052329             -13.7481
        46        2.0000           -0.4727719             -12.8648
        47        2.0000           -0.4329504             -11.7812 (HOMO)
        48        0.0000           -0.4019768             -10.9383 (LUMO)
        49                         -0.3458562              -9.4112
        50                         -0.3237822              -8.8106
        51                         -0.2927974              -7.9674
        52                         -0.2164009              -5.8886
        53                         -0.1761328              -4.7928
        54                         -0.1580936              -4.3019
        55                         -0.1517755              -4.1300
        56                         -0.1374738              -3.7409
        57                         -0.1304098              -3.5486
        58                         -0.1278828              -3.4799
       ...                                ...                  ...
       100                          0.7229495              19.6725
      -------------------------------------------------------------
                  HL-Gap            0.0309736 Eh            0.8428 eV

Wiberg/Mayer (AO) data.
largest (>0.10) Wiberg bond orders for each atom

     #   Z sym  total        # sym  WBO       # sym  WBO       # sym  WBO
 ---------------------------------------------------------------------------
     1   6 C    3.846 --    20 H    0.984    19 H    0.980    18 H    0.978
                             2 O    0.869
     2   8 O    2.222 --     3 C    1.155     1 C    0.869     5 O    0.146
     3   6 C    3.856 --     5 O    1.691     2 O    1.155     4 C    0.965
     4   6 C    3.893 --     3 C    0.965    22 H    0.959    23 H    0.951
                            21 H    0.594     6 C    0.151
     5   8 O    1.970 --     3 C    1.691     2 O    0.146
     6   6 C    3.869 --    16 C    1.568     7 N    1.429    21 H    0.378
                             4 C    0.151
     7   7 N    3.188 --     6 C    1.429     8 C    1.414
     8   6 C    3.885 --     7 N    1.414    13 N    1.209     9 C    0.982
     9   6 C    3.958 --    12 N    1.001     8 C    0.982    11 C    0.971
                            10 C    0.963
    10   6 C    3.986 --    24 H    0.984    26 H    0.981    25 H    0.980
                             9 C    0.963
    11   6 C    3.988 --    28 H    0.984    27 H    0.984    29 H    0.980
                             9 C    0.971
    12   7 N    2.955 --     9 C    1.001    30 H    0.938    31 H    0.935
    13   7 N    3.479 --     8 C    1.209    14 C    1.133    32 H    0.862
                            15 O    0.130
    14   6 C    3.914 --    15 O    1.626    13 N    1.133    16 C    0.972
    15   8 O    1.968 --    14 C    1.626    13 N    0.130
    16   6 C    3.930 --     6 C    1.568    17 O    1.125    14 C    0.972
    17   8 O    2.094 --    16 C    1.125    33 H    0.783
    18   1 H    1.002 --     1 C    0.978
    19   1 H    1.003 --     1 C    0.980
    20   1 H    1.006 --     1 C    0.984
    21   1 H    1.014 --     4 C    0.594     6 C    0.378
    22   1 H    0.986 --     4 C    0.959
    23   1 H    0.985 --     4 C    0.951
    24   1 H    0.999 --    10 C    0.984
    25   1 H    0.997 --    10 C    0.980
    26   1 H    0.997 --    10 C    0.981
    27   1 H    1.002 --    11 C    0.984
    28   1 H    0.998 --    11 C    0.984
    29   1 H    0.995 --    11 C    0.980
    30   1 H    0.956 --    12 N    0.938
    31   1 H    0.948 --    12 N    0.935
    32   1 H    0.907 --    13 N    0.862
    33   1 H    0.813 --    17 O    0.783
 ---------------------------------------------------------------------------

           -------------------------------------------------
          | TOTAL ENERGY              -57.777603896205 Eh   |
          | GRADIENT NORM               0.000744357160 Eh/α |
          | HOMO-LUMO GAP               0.842835611572 eV   |
           -------------------------------------------------

 * finished run on 2023/06/20 at 15:06:39.117
