   * xtb version 6.5.1 (579679a) compiled by 'ehlert@majestix' on 2022-07-11
          program call               : /lustre/hpc/kemi/ree/PhD/git/ReactivityQM/dep/xtb-6.5.1/bin/xtb --gfn 1 /lustre/hpc/kemi/ree/PhD/git/ReactivityQM/calculations/R02deprot/reac01prodE14/conf14/R02deprot_reac01prodE14_conf14_gfn1.xyz --opt --vfukui --chrg -2 --uhf 0 --alpb DMSO

   ID    Z sym.   atoms
    1    6 C      1, 3, 5, 7-10, 12, 14, 17, 18, 21, 23, 24
    2    8 O      2, 4, 13, 19, 22, 25
    3    7 N      6, 11, 15, 16, 20
    4    1 H      26-42

      * Solvation model:               ALPB
        Solvent                        DMSO
        Solvent mass                       7.8130E+01 g/mol
          :  Hamiltonian                  GFN1-xTB          :
 * total energy  :   -83.5935015 Eh     change       -0.3307719E-09 Eh
 * total energy  :   -83.6148396 Eh     change       -0.2133805E-01 Eh
 * total energy  :   -83.6242016 Eh     change       -0.9362024E-02 Eh
 * total energy  :   -83.6255620 Eh     change       -0.1360406E-02 Eh
 * total energy  :   -83.6266425 Eh     change       -0.1080448E-02 Eh
 * total energy  :   -83.6271482 Eh     change       -0.5057013E-03 Eh
 * total energy  :   -83.6277462 Eh     change       -0.5980788E-03 Eh
 * total energy  :   -83.6283320 Eh     change       -0.5857993E-03 Eh
 * total energy  :   -83.6289221 Eh     change       -0.5900605E-03 Eh
 * total energy  :   -83.6294755 Eh     change       -0.5534350E-03 Eh
 * total energy  :   -83.6324049 Eh     change       -0.1672101E-04 Eh
 * total energy  :   -83.6324233 Eh     change       -0.1846785E-04 Eh
 * total energy  :   -83.6324366 Eh     change       -0.1326523E-04 Eh
 * total energy  :   -83.6324460 Eh     change       -0.9431241E-05 Eh
 * total energy  :   -83.6324550 Eh     change       -0.9023138E-05 Eh
 * total energy  :   -83.6324628 Eh     change       -0.7754316E-05 Eh
 * total energy  :   -83.6324692 Eh     change       -0.6445265E-05 Eh
 * total energy  :   -83.6324750 Eh     change       -0.5726968E-05 Eh
 * total energy  :   -83.6324793 Eh     change       -0.4318106E-05 Eh
   *** GEOMETRY OPTIMIZATION CONVERGED AFTER 59 ITERATIONS ***

 final structure:
================
42
 xtb: 6.5.1 (579679a)
C           -6.18929275840186       -0.32086097322082       -0.10881231693082
O           -4.88073370413837       -0.47041138414216        0.39902819012135
C           -3.88644607673479        0.26593336763460       -0.30676455900662
O           -4.26655847021516        0.99521136597080       -1.24888853035610
C           -2.59086013474180        0.06322203893141        0.16503147316069
N           -1.58659889498568        0.77281122929470       -0.47219485685076
C           -0.36131738261699        0.64344934493081       -0.07940653819923
C            0.69322622126915        1.45675906061494       -0.83423121660644
C            0.42845300642908        1.38072374634350       -2.34327966204525
C            0.64856720000396        2.91730778519832       -0.35339780933294
N            1.99637779272386        0.87087760086612       -0.51701961529292
C            3.16783768205855        1.27969356916494       -1.01186853798168
O            3.32646843008789        2.20878264340064       -1.80917318252767
C            4.32485189161465        0.49054810883778       -0.52619571940106
N            5.58525830781174        0.67825941714060       -0.81421654637305
N            6.28804575526339       -0.29215414344832       -0.15626225883734
C            5.42253143747096       -1.00925537714926        0.48839981338366
C            5.69024242188464       -2.18657602540266        1.34600889871165
O            4.16395419611634       -0.57305047401743        0.30241280496671
N            0.11532609892397       -0.10437391669321        0.96302275946946
C           -0.73245775306186       -0.82364322739083        1.69103223527339
O           -0.35989341113700       -1.51249459691732        2.66530937874577
C           -2.25084676721073       -0.87382368658823        1.30791536992178
C           -2.54639919373183       -2.34973330353224        0.95018053512170
O           -2.98155484571648       -0.53284731651467        2.50420882706818
H           -6.53863243608831        0.71666108450526       -0.02305422470379
H           -6.24540048034942       -0.61652492683887       -1.16475575877669
H           -6.84597277066871       -0.96735463945228        0.47569165574915
H            1.08705543761902        2.04890588775095       -2.89648017254410
H           -0.60802439223697        1.66491541543321       -2.52926124820128
H            0.57945338433548        0.36073042281496       -2.69675817871666
H            1.36872979851784        3.52989424486657       -0.89500130938169
H           -0.35213063751430        3.31573429098475       -0.52002626574487
H            0.87449467217429        2.96493162407097        0.71185196946095
H            1.96214829218101        0.13961687379015        0.19583644149099
H            5.12997393676735       -3.04963366027068        0.98587212991832
H            6.75352662709342       -2.41171699390018        1.32825991964140
H            5.38095115139240       -1.98558480773129        2.37224580315217
H           -3.60851592488323       -2.49995672466506        0.76572247651084
H           -1.99014535339481       -2.62869473253040        0.05508383721756
H           -2.23942761613881       -2.99280722935614        1.77633571993715
H           -3.92626273778843       -0.56347498277799        2.29915726879087

          :  Hamiltonian                  GFN1-xTB          :
         :: total energy             -83.632479289002 Eh    ::
         :: gradient norm              0.000551981420 Eh/a0 ::
         :: HOMO-LUMO gap              0.140050894551 eV    ::
         :: SCC energy               -84.364504200710 Eh    ::
         :: -> Gsolv                  -0.273564135944 Eh    ::
         :: repulsion energy           0.757834643323 Eh    ::

    * Orbital Energies and Occupations

         #    Occupation            Energy/Eh            Energy/eV
      -------------------------------------------------------------
         1        2.0000           -0.8411055             -22.8876
       ...           ...                  ...                  ...
        56        2.0000           -0.4356782             -11.8554
        57        2.0000           -0.4344029             -11.8207
        58        2.0000           -0.4269498             -11.6179
        59        2.0000           -0.4224920             -11.4966
        60        2.0000           -0.4211950             -11.4613
        61        2.0000           -0.4148732             -11.2893
        62        2.0000           -0.4083257             -11.1111
        63        2.0000           -0.3917339             -10.6596
        64        2.0000           -0.3805017             -10.3540
        65        2.0000           -0.3596935              -9.7878
        66        2.0000           -0.3522033              -9.5839
        67        2.0000           -0.3284278              -8.9370
        68        1.8751           -0.2883035              -7.8451 (HOMO)
        69        0.1249           -0.2831567              -7.7051 (LUMO)
        70                         -0.2381817              -6.4813
        71                         -0.1998028              -5.4369
        72                         -0.1686994              -4.5905
        73                         -0.1347708              -3.6673
        74                         -0.1339875              -3.6460
        75                         -0.1116964              -3.0394
        76                         -0.1008799              -2.7451
        77                         -0.0954399              -2.5971
        78                         -0.0910334              -2.4771
        79                         -0.0724236              -1.9707
       ...                                ...                  ...
       134                          0.7240025              19.7011
      -------------------------------------------------------------
                  HL-Gap            0.0051468 Eh            0.1401 eV

Wiberg/Mayer (AO) data.
largest (>0.10) Wiberg bond orders for each atom

     #   Z sym  total        # sym  WBO       # sym  WBO       # sym  WBO
 ---------------------------------------------------------------------------
     1   6 C    3.920 --    28 H    0.987    26 H    0.981    27 H    0.980
                             2 O    0.951
     2   8 O    2.069 --     1 C    0.951     3 C    0.901
     3   6 C    3.844 --     4 O    1.437     5 C    1.374     2 O    0.901
     4   8 O    1.730 --     3 C    1.437     5 C    0.119
     5   6 C    3.807 --     3 C    1.374     6 N    1.149    23 C    0.981
                             4 O    0.119
     6   7 N    3.006 --     7 C    1.570     5 C    1.149
     7   6 C    3.925 --     6 N    1.570    20 N    1.180     8 C    0.961
     8   6 C    3.920 --     9 C    0.991    10 C    0.981     7 C    0.961
                            11 N    0.918
     9   6 C    3.994 --     8 C    0.991    31 H    0.987    29 H    0.985
                            30 H    0.983
    10   6 C    3.991 --    34 H    0.987    33 H    0.986    32 H    0.985
                             8 C    0.981
    11   7 N    3.368 --    12 C    1.301     8 C    0.918    35 H    0.871
                            13 O    0.179
    12   6 C    3.893 --    13 O    1.511    11 N    1.301    14 C    1.005
    13   8 O    1.817 --    12 C    1.511    11 N    0.179
    14   6 C    3.810 --    15 N    1.578    19 O    1.032    12 C    1.005
    15   7 N    2.928 --    14 C    1.578    16 N    1.188
    16   7 N    2.979 --    17 C    1.621    15 N    1.188
    17   6 C    3.859 --    16 N    1.621    19 O    1.069    18 C    1.028
    18   6 C    3.990 --    17 C    1.028    37 H    0.984    36 H    0.967
                            38 H    0.966
    19   8 O    2.285 --    17 C    1.069    14 C    1.032
    20   7 N    2.947 --    21 C    1.371     7 C    1.180    22 O    0.135
    21   6 C    3.900 --    22 O    1.489    20 N    1.371    23 C    0.908
    22   8 O    1.761 --    21 C    1.489    20 N    0.135
    23   6 C    3.895 --     5 C    0.981    24 C    0.971    25 O    0.914
                            21 C    0.908
    24   6 C    3.990 --    40 H    0.988    41 H    0.986    39 H    0.984
                            23 C    0.971
    25   8 O    1.870 --    23 C    0.914    42 H    0.871
    26   1 H    1.022 --     1 C    0.981
    27   1 H    1.022 --     1 C    0.980
    28   1 H    1.019 --     1 C    0.987
    29   1 H    1.016 --     9 C    0.985
    30   1 H    1.028 --     9 C    0.983
    31   1 H    1.010 --     9 C    0.987
    32   1 H    1.014 --    10 C    0.985
    33   1 H    1.014 --    10 C    0.986
    34   1 H    1.009 --    10 C    0.987
    35   1 H    0.986 --    11 N    0.871
    36   1 H    0.998 --    18 C    0.967
    37   1 H    1.001 --    18 C    0.984
    38   1 H    0.998 --    18 C    0.966
    39   1 H    1.021 --    24 C    0.984
    40   1 H    1.015 --    24 C    0.988
    41   1 H    1.022 --    24 C    0.986
    42   1 H    0.915 --    25 O    0.871
 ---------------------------------------------------------------------------

           -------------------------------------------------
          | TOTAL ENERGY              -83.632479289002 Eh   |
          | GRADIENT NORM               0.000551981420 Eh/α |
          | HOMO-LUMO GAP               0.140050894551 eV   |
           -------------------------------------------------

 * finished run on 2023/06/20 at 18:04:43.534
