   * xtb version 6.5.1 (579679a) compiled by 'ehlert@majestix' on 2022-07-11
          program call               : /lustre/hpc/kemi/ree/PhD/git/ReactivityQM/dep/xtb-6.5.1/bin/xtb --gfn 1 /lustre/hpc/kemi/ree/PhD/git/ReactivityQM/calculations/R02/reac01prodE14/conf08/R02_reac01prodE14_conf08_gfn1.xyz --opt --vfukui --chrg -1 --uhf 0 --alpb DMSO

   ID    Z sym.   atoms
    1    6 C      1, 3, 5, 7-10, 12, 14, 17, 18, 21, 23, 24
    2    8 O      2, 4, 13, 19, 22, 25
    3    7 N      6, 11, 15, 16, 20
    4    1 H      26-43

      * Solvation model:               ALPB
        Solvent                        DMSO
        Solvent mass                       7.8130E+01 g/mol
          :  Hamiltonian                  GFN1-xTB          :
 * total energy  :   -83.8692130 Eh     change       -0.9379164E-12 Eh
 * total energy  :   -83.8836579 Eh     change       -0.1444496E-01 Eh
 * total energy  :   -83.8894496 Eh     change       -0.5791722E-02 Eh
 * total energy  :   -83.8902547 Eh     change       -0.8050371E-03 Eh
 * total energy  :   -83.8909069 Eh     change       -0.6521966E-03 Eh
 * total energy  :   -83.8912470 Eh     change       -0.3401001E-03 Eh
 * total energy  :   -83.8916163 Eh     change       -0.3693128E-03 Eh
 * total energy  :   -83.8918731 Eh     change       -0.2567923E-03 Eh
 * total energy  :   -83.8919949 Eh     change       -0.1218199E-03 Eh
 * total energy  :   -83.8920507 Eh     change       -0.5583196E-04 Eh
 * total energy  :   -83.8931256 Eh     change       -0.1444815E-04 Eh
 * total energy  :   -83.8931488 Eh     change       -0.2317658E-04 Eh
 * total energy  :   -83.8931617 Eh     change       -0.1284694E-04 Eh
 * total energy  :   -83.8931808 Eh     change       -0.1911351E-04 Eh
 * total energy  :   -83.8931924 Eh     change       -0.1163672E-04 Eh
 * total energy  :   -83.8932043 Eh     change       -0.1186774E-04 Eh
 * total energy  :   -83.8932147 Eh     change       -0.1046604E-04 Eh
 * total energy  :   -83.8932207 Eh     change       -0.6002228E-05 Eh
 * total energy  :   -83.8932253 Eh     change       -0.4550128E-05 Eh
   *** GEOMETRY OPTIMIZATION CONVERGED AFTER 60 ITERATIONS ***

 final structure:
================
43
 xtb: 6.5.1 (579679a)
C           -5.16847505222257        2.61769991118740       -0.48411404124285
O           -4.34754885527403        1.46924289920362       -0.61459092237346
C           -3.13937868607463        1.52536437892872        0.09621302742461
O           -2.86640699702849        2.55525476188643        0.72834302489322
C           -2.36683912708849        0.35353722694294       -0.00949947455232
N           -1.16438026625854        0.37189247558124        0.63746746613111
C           -0.35293245038913       -0.62133820961695        0.62009033876631
C            0.95611941645425       -0.55319510270654        1.38295871141079
C            1.24823075182663       -1.84173773548306        2.16112590781583
C            0.89837024703551        0.62966570241551        2.35308414327588
N            2.08009682271989       -0.27089114437091        0.45609225180900
C            2.55161419129373       -1.11036881795628       -0.47529594095532
O            2.11799498852663       -2.22546369906673       -0.73339098043472
C            3.70161562526287       -0.54505463716436       -1.23453337774824
N            4.29959997268810       -1.06977237519345       -2.25912228223129
N            5.28475292366784       -0.20099008860162       -2.62812900191784
C            5.22687529830463        0.79914465648562       -1.80621690895519
C            6.08847074449844        2.00094827632369       -1.77962111168173
O            4.24479405890562        0.64660215130504       -0.90177670524308
N           -0.64587826377293       -1.79026616701785       -0.10847014548490
C           -1.75151394584559       -1.96188636252474       -0.85741901468877
O           -1.90831082819740       -2.98736637458160       -1.51947868626295
C           -2.82944266392059       -0.86085344405195       -0.80043316157211
C           -4.07642304687465       -1.52454163468127       -0.17105821365932
O           -3.11249994956147       -0.52800502934793       -2.16551578285632
H           -6.07638686234274        2.43461400720493       -1.05929313332627
H           -4.66390928903932        3.51008380294995       -0.87285018447736
H           -5.43255952117583        2.79442272914527        0.56528896840080
H            1.36149001586861       -2.69574647555773        1.49659920621020
H            0.42737749418296       -2.03805841248608        2.84946734682213
H            2.16748685191338       -1.72477262978860        2.73296770087147
H            1.84470858222543        0.73273302980716        2.88034187325870
H            0.68525274026773        1.55103682050975        1.81162758301428
H            0.10451121998606        0.46548453383966        3.08031405841112
H            2.56808112166221        0.59776467433955        0.59583823639820
H            5.48646941223074        2.89686911755000       -1.92926110869686
H            6.57916696539496        2.08428165451381       -0.81045417698122
H            6.83882953529146        1.93084171947041       -2.56296779784521
H            0.04867671361325       -2.52339999513108       -0.14308761933028
H           -3.85724179964772       -1.81231482159569        0.85617785759891
H           -4.34472171765499       -2.41164309072246       -0.74505394425328
H           -4.91567901548903       -0.83350646836782       -0.17472939521032
H           -3.79005835595573        0.16369118642662       -2.17431359052724

          :  Hamiltonian                  GFN1-xTB          :
         :: total energy             -83.893225293529 Eh    ::
         :: gradient norm              0.000711077971 Eh/a0 ::
         :: HOMO-LUMO gap              0.733910363357 eV    ::
         :: SCC energy               -84.657217478812 Eh    ::
         :: -> Gsolv                  -0.125878976091 Eh    ::
         :: repulsion energy           0.790595182928 Eh    ::

    * Orbital Energies and Occupations

         #    Occupation            Energy/Eh            Energy/eV
      -------------------------------------------------------------
         1        2.0000           -0.8607801             -23.4230
       ...           ...                  ...                  ...
        56        2.0000           -0.4744226             -12.9097
        57        2.0000           -0.4687444             -12.7552
        58        2.0000           -0.4574626             -12.4482
        59        2.0000           -0.4535868             -12.3427
        60        2.0000           -0.4456851             -12.1277
        61        2.0000           -0.4451419             -12.1129
        62        2.0000           -0.4433165             -12.0633
        63        2.0000           -0.4376322             -11.9086
        64        2.0000           -0.4243710             -11.5477
        65        2.0000           -0.4185323             -11.3888
        66        2.0000           -0.4036980             -10.9852
        67        2.0000           -0.3845215             -10.4634
        68        2.0000           -0.3292896              -8.9604 (HOMO)
        69        0.0000           -0.3023189              -8.2265 (LUMO)
        70                         -0.2528129              -6.8794
        71                         -0.2429216              -6.6102
        72                         -0.1979293              -5.3859
        73                         -0.1909050              -5.1948
        74                         -0.1425914              -3.8801
        75                         -0.1409119              -3.8344
        76                         -0.1154189              -3.1407
        77                         -0.1142026              -3.1076
        78                         -0.1118823              -3.0445
        79                         -0.0943864              -2.5684
       ...                                ...                  ...
       136                          0.7325779              19.9345
      -------------------------------------------------------------
                  HL-Gap            0.0269707 Eh            0.7339 eV

Wiberg/Mayer (AO) data.
largest (>0.10) Wiberg bond orders for each atom

     #   Z sym  total        # sym  WBO       # sym  WBO       # sym  WBO
 ---------------------------------------------------------------------------
     1   6 C    3.908 --    26 H    0.987    28 H    0.981    27 H    0.981
                             2 O    0.936
     2   8 O    2.102 --     3 C    0.942     1 C    0.936
     3   6 C    3.864 --     4 O    1.490     5 C    1.302     2 O    0.942
     4   8 O    1.794 --     3 C    1.490     5 C    0.111
     5   6 C    3.857 --     3 C    1.302     6 N    1.208    23 C    0.972
                             4 O    0.111     7 C    0.108
     6   7 N    3.054 --     7 C    1.615     5 C    1.208
     7   6 C    3.903 --     6 N    1.615    20 N    1.004     8 C    0.975
                             5 C    0.108
     8   6 C    3.925 --    10 C    1.002     9 C    0.992     7 C    0.975
                            11 N    0.894
     9   6 C    3.991 --     8 C    0.992    30 H    0.986    31 H    0.985
                            29 H    0.978
    10   6 C    3.994 --     8 C    1.002    32 H    0.986    34 H    0.984
                            33 H    0.982
    11   7 N    3.368 --    12 C    1.295    35 H    0.899     8 C    0.894
                            13 O    0.183
    12   6 C    3.921 --    13 O    1.558    11 N    1.295    14 C    0.986
    13   8 O    1.895 --    12 C    1.558    11 N    0.183
    14   6 C    3.868 --    15 N    1.626    19 O    1.047    12 C    0.986
    15   7 N    2.995 --    14 C    1.626    16 N    1.193
    16   7 N    2.981 --    17 C    1.617    15 N    1.193
    17   6 C    3.870 --    16 N    1.617    19 O    1.071    18 C    1.031
    18   6 C    3.987 --    17 C    1.031    38 H    0.983    37 H    0.964
                            36 H    0.963
    19   8 O    2.314 --    17 C    1.071    14 C    1.047
    20   7 N    3.407 --    21 C    1.250     7 C    1.004    39 H    0.887
                            22 O    0.144
    21   6 C    3.888 --    22 O    1.571    20 N    1.250    23 C    0.935
    22   8 O    1.850 --    21 C    1.571    20 N    0.144
    23   6 C    3.911 --     5 C    0.972    24 C    0.969    21 C    0.935
                            25 O    0.930
    24   6 C    3.995 --    40 H    0.988    41 H    0.986    42 H    0.983
                            23 C    0.969
    25   8 O    1.880 --    23 C    0.930    43 H    0.858
    26   1 H    1.017 --     1 C    0.987
    27   1 H    1.018 --     1 C    0.981
    28   1 H    1.018 --     1 C    0.981
    29   1 H    1.010 --     9 C    0.978
    30   1 H    1.004 --     9 C    0.986
    31   1 H    1.002 --     9 C    0.985
    32   1 H    1.001 --    10 C    0.986
    33   1 H    1.016 --    10 C    0.982
    34   1 H    1.009 --    10 C    0.984
    35   1 H    0.943 --    11 N    0.899
    36   1 H    0.997 --    18 C    0.963
    37   1 H    0.997 --    18 C    0.964
    38   1 H    0.999 --    18 C    0.983
    39   1 H    0.963 --    20 N    0.887
    40   1 H    1.012 --    24 C    0.988
    41   1 H    1.014 --    24 C    0.986
    42   1 H    1.018 --    24 C    0.983
    43   1 H    0.901 --    25 O    0.858
 ---------------------------------------------------------------------------

           -------------------------------------------------
          | TOTAL ENERGY              -83.893225293529 Eh   |
          | GRADIENT NORM               0.000711077971 Eh/α |
          | HOMO-LUMO GAP               0.733910363357 eV   |
           -------------------------------------------------

 * finished run on 2023/06/20 at 15:16:09.734
