                         Program Version 5.0.1 -  RELEASE  -
|  1> # ORCA input file
|  2> ! SP r2SCAN-3c CPCM
|  3>
|  4> %maxcore 1875.0
|  5> %pal nprocs 4 end
|  6> %cpcm smd true SMDsolvent "DMSO" end
|  7>
|  8> *xyz 1 1
|  9> C       4.044093   -0.678706    0.412954
| 10> O       2.668241   -0.209865    0.274976
| 11> C       2.397525    1.026764    1.005448
| 12> C       2.193076   -0.262724   -1.135636
| 13> O       3.031906   -0.403094   -1.970893
| 14> C       0.767353   -0.212567   -1.286499
| 15> N      -0.015660   -0.113688   -0.160371
| 16> C      -1.302194   -0.111678   -0.300773
| 17> C      -2.210879    0.038703    0.897367
| 18> C      -1.674505   -0.797501    2.066497
| 19> C      -2.244690    1.528039    1.268289
| 20> N      -3.547254   -0.384135    0.498560
| 21> N      -1.902701   -0.192743   -1.514029
| 22> C      -1.251101   -0.296786   -2.718874
| 23> O      -1.841642   -0.369969   -3.775111
| 24> C       0.221326   -0.306529   -2.558433
| 25> O       0.914046   -0.417816   -3.673189
| 26> H       4.097574   -1.641575   -0.088942
| 27> H       4.225909   -0.781811    1.479111
| 28> H       4.721895    0.041988   -0.042583
| 29> H       2.974743    1.840430    0.568146
| 30> H       1.326889    1.202928    0.934665
| 31> H       2.688324    0.841321    2.036175
| 32> H      -0.668215   -0.469780    2.323277
| 33> H      -2.323465   -0.675935    2.931772
| 34> H      -1.641622   -1.850485    1.790619
| 35> H      -1.236162    1.878624    1.482266
| 36> H      -2.864443    1.671421    2.151906
| 37> H      -2.656501    2.109953    0.444660
| 38> H      -4.231400    0.020827    1.122919
| 39> H      -3.619250   -1.390213    0.574869
| 40> H      -2.922220   -0.194161   -1.502341
| 41> H       1.881004   -0.439240   -3.536803
| 42> **                         ****END OF INPUT****

CARTESIAN COORDINATES (ANGSTROEM)
---------------------------------
  C      4.044093   -0.678706    0.412954
  O      2.668241   -0.209865    0.274976
  C      2.397525    1.026764    1.005448
  C      2.193076   -0.262724   -1.135636
  O      3.031906   -0.403094   -1.970893
  C      0.767353   -0.212567   -1.286499
  N     -0.015660   -0.113688   -0.160371
  C     -1.302194   -0.111678   -0.300773
  C     -2.210879    0.038703    0.897367
  C     -1.674505   -0.797501    2.066497
  C     -2.244690    1.528039    1.268289
  N     -3.547254   -0.384135    0.498560
  N     -1.902701   -0.192743   -1.514029
  C     -1.251101   -0.296786   -2.718874
  O     -1.841642   -0.369969   -3.775111
  C      0.221326   -0.306529   -2.558433
  O      0.914046   -0.417816   -3.673189
  H      4.097574   -1.641575   -0.088942
  H      4.225909   -0.781811    1.479111
  H      4.721895    0.041988   -0.042583
  H      2.974743    1.840430    0.568146
  H      1.326889    1.202928    0.934665
  H      2.688324    0.841321    2.036175
  H     -0.668215   -0.469780    2.323277
  H     -2.323465   -0.675935    2.931772
  H     -1.641622   -1.850485    1.790619
  H     -1.236162    1.878624    1.482266
  H     -2.864443    1.671421    2.151906
  H     -2.656501    2.109953    0.444660
  H     -4.231400    0.020827    1.122919
  H     -3.619250   -1.390213    0.574869
  H     -2.922220   -0.194161   -1.502341
  H      1.881004   -0.439240   -3.536803

 Total Charge           Charge          ....    1
 Multiplicity           Mult            ....    1
 Number of Electrons    NEL             ....  128
 Basis Dimension        Dim             ....  438

ORBITAL ENERGIES
----------------

  NO   OCC          E(Eh)            E(eV)
   0   2.0000     -19.119137      -520.2582
   1   2.0000     -19.032333      -517.8961
   2   2.0000     -19.021271      -517.5951
   3   2.0000     -18.947717      -515.5936
   4   2.0000     -14.232992      -387.2994
   5   2.0000     -14.179978      -385.8568
   6   2.0000     -14.147785      -384.9808
   7   2.0000     -10.228785      -278.3394
   8   2.0000     -10.167465      -276.6708
   9   2.0000     -10.158956      -276.4392
  10   2.0000     -10.133906      -275.7576
  11   2.0000     -10.124039      -275.4891
  12   2.0000     -10.115283      -275.2508
  13   2.0000     -10.111936      -275.1598
  14   2.0000     -10.089462      -274.5482
  15   2.0000     -10.025106      -272.7970
  16   2.0000     -10.019100      -272.6336
  17   2.0000      -1.157155       -31.4878
  18   2.0000      -1.093537       -29.7567
  19   2.0000      -1.077310       -29.3151
  20   2.0000      -1.038191       -28.2506
  21   2.0000      -0.982515       -26.7356
  22   2.0000      -0.899476       -24.4760
  23   2.0000      -0.874100       -23.7855
  24   2.0000      -0.796408       -21.6714
  25   2.0000      -0.752653       -20.4807
  26   2.0000      -0.736228       -20.0338
  27   2.0000      -0.728545       -19.8247
  28   2.0000      -0.686853       -18.6902
  29   2.0000      -0.662058       -18.0155
  30   2.0000      -0.658270       -17.9124
  31   2.0000      -0.606018       -16.4906
  32   2.0000      -0.583615       -15.8810
  33   2.0000      -0.565618       -15.3912
  34   2.0000      -0.550714       -14.9857
  35   2.0000      -0.541823       -14.7438
  36   2.0000      -0.524222       -14.2648
  37   2.0000      -0.512741       -13.9524
  38   2.0000      -0.488836       -13.3019
  39   2.0000      -0.478212       -13.0128
  40   2.0000      -0.471555       -12.8317
  41   2.0000      -0.459964       -12.5163
  42   2.0000      -0.435356       -11.8466
  43   2.0000      -0.430175       -11.7057
  44   2.0000      -0.424224       -11.5437
  45   2.0000      -0.418576       -11.3900
  46   2.0000      -0.415911       -11.3175
  47   2.0000      -0.406573       -11.0634
  48   2.0000      -0.401314       -10.9203
  49   2.0000      -0.397568       -10.8184
  50   2.0000      -0.386400       -10.5145
  51   2.0000      -0.380807       -10.3623
  52   2.0000      -0.364364        -9.9149
  53   2.0000      -0.353970        -9.6320
  54   2.0000      -0.347804        -9.4642
  55   2.0000      -0.347352        -9.4519
  56   2.0000      -0.338199        -9.2029
  57   2.0000      -0.324904        -8.8411
  58   2.0000      -0.318506        -8.6670
  59   2.0000      -0.300898        -8.1878
  60   2.0000      -0.274056        -7.4575
  61   2.0000      -0.258793        -7.0421
  62   2.0000      -0.233182        -6.3452
  63   2.0000      -0.228030        -6.2050
  64   0.0000      -0.140108        -3.8125
  65   0.0000      -0.054716        -1.4889
  66   0.0000      -0.027479        -0.7477
  67   0.0000      -0.015243        -0.4148
  68   0.0000       0.040867         1.1120

MULLIKEN ATOMIC CHARGES
-----------------------
   0 C :   -0.246147
   1 O :   -0.105433
   2 C :   -0.269445
   3 C :    0.298065
   4 O :   -0.378229
   5 C :    0.112553
   6 N :   -0.197759
   7 C :    0.279516
   8 C :    0.157360
   9 C :   -0.543092
  10 C :   -0.573521
  11 N :   -0.688263
  12 N :   -0.019847
  13 C :    0.069024
  14 O :   -0.378297
  15 C :    0.126303
  16 O :   -0.342833
  17 H :    0.213419
  18 H :    0.214050
  19 H :    0.217002
  20 H :    0.214480
  21 H :    0.230887
  22 H :    0.213724
  23 H :    0.175419
  24 H :    0.182212
  25 H :    0.174901
  26 H :    0.187065
  27 H :    0.185505
  28 H :    0.182265
  29 H :    0.303717
  30 H :    0.295278
  31 H :    0.329934
  32 H :    0.380187
Sum of atomic charges:    1.0000000

LOEWDIN ATOMIC CHARGES
----------------------
   0 C :    0.021644
   1 O :   -0.713779
   2 C :    0.017664
   3 C :    0.477198
   4 O :   -0.355088
   5 C :    0.180944
   6 N :   -0.586268
   7 C :    0.368068
   8 C :    0.059818
   9 C :   -0.363875
  10 C :   -0.347019
  11 N :   -0.675532
  12 N :   -0.443246
  13 C :    0.380755
  14 O :   -0.408488
  15 C :    0.326510
  16 O :   -0.389668
  17 H :    0.213141
  18 H :    0.211523
  19 H :    0.204024
  20 H :    0.200345
  21 H :    0.225472
  22 H :    0.210785
  23 H :    0.171705
  24 H :    0.168219
  25 H :    0.170016
  26 H :    0.173294
  27 H :    0.171642
  28 H :    0.173116
  29 H :    0.261443
  30 H :    0.257435
  31 H :    0.319445
  32 H :    0.318757

  Mayer bond orders larger than 0.100000
B(  0-C ,  1-O ) :   0.7994 B(  0-C , 17-H ) :   0.9393 B(  0-C , 18-H ) :   0.9295
B(  0-C , 19-H ) :   0.9243 B(  1-O ,  2-C ) :   0.8018 B(  1-O ,  3-C ) :   0.7465
B(  2-C , 20-H ) :   0.9253 B(  2-C , 21-H ) :   0.9168 B(  2-C , 22-H ) :   0.9345
B(  3-C ,  4-O ) :   1.8775 B(  3-C ,  5-C ) :   1.1088 B(  5-C ,  6-N ) :   0.9786
B(  5-C , 15-C ) :   1.3370 B(  6-N ,  7-C ) :   1.5245 B(  7-C ,  8-C ) :   0.8576
B(  7-C , 12-N ) :   1.1619 B(  8-C ,  9-C ) :   0.9702 B(  8-C , 10-C ) :   0.9167
B(  8-C , 11-N ) :   0.9230 B(  9-C , 23-H ) :   0.9651 B(  9-C , 24-H ) :   0.9691
B(  9-C , 25-H ) :   0.9632 B( 10-C , 26-H ) :   0.9691 B( 10-C , 27-H ) :   0.9585
B( 10-C , 28-H ) :   0.9593 B( 11-N , 29-H ) :   0.9045 B( 11-N , 30-H ) :   0.9069
B( 12-N , 13-C ) :   1.0670 B( 12-N , 31-H ) :   0.8443 B( 13-C , 14-O ) :   2.0436
B( 13-C , 15-C ) :   0.9509 B( 15-C , 16-O ) :   1.1712 B( 16-O , 32-H ) :   0.7991

Dispersion correction           -0.013382743
FINAL SINGLE POINT ENERGY      -855.522099340671

DIPOLE MOMENT
-------------
                                X             Y             Z
Electronic contribution:      4.06715      -3.45753     -18.70789
Nuclear contribution   :     -0.86629       3.92270      22.84336
                        -----------------------------------------
Total Dipole Moment    :      3.20086       0.46516       4.13547
                        -----------------------------------------
Magnitude (a.u.)       :      5.25014
Magnitude (Debye)      :     13.34480

Rotational constants in cm-1:     0.020142     0.012814     0.008463
Rotational constants in MHz :   603.854646   384.145549   253.728760

                             ****ORCA TERMINATED NORMALLY****
TOTAL RUN TIME: 0 days 0 hours 1 minutes 21 seconds 999 msec
