   * xtb version 6.5.1 (579679a) compiled by 'ehlert@majestix' on 2022-07-11
          program call               : /lustre/hpc/kemi/ree/PhD/git/ReactivityQM/dep/xtb-6.5.1/bin/xtb --gfn 1 /lustre/hpc/kemi/ree/PhD/git/ReactivityQM/calculations/R01/reac02prodN10/conf20/R01_reac02prodN10_conf20_gfn1.xyz --opt --vfukui --chrg 1 --uhf 0 --alpb DMSO

   ID    Z sym.   atoms
    1    6 C      1, 3, 4, 6, 8-11, 14, 16
    2    8 O      2, 5, 15, 17
    3    7 N      7, 12, 13
    4    1 H      18-33

      * Solvation model:               ALPB
        Solvent                        DMSO
        Solvent mass                       7.8130E+01 g/mol
          :  Hamiltonian                  GFN1-xTB          :
 * total energy  :   -57.8010228 Eh     change       -0.1312372E-10 Eh
 * total energy  :   -57.8107904 Eh     change       -0.9767565E-02 Eh
 * total energy  :   -57.8134728 Eh     change       -0.2682349E-02 Eh
 * total energy  :   -57.8140579 Eh     change       -0.5851272E-03 Eh
 * total energy  :   -57.8146179 Eh     change       -0.5599830E-03 Eh
 * total energy  :   -57.8149108 Eh     change       -0.2929642E-03 Eh
 * total energy  :   -57.8152023 Eh     change       -0.2914295E-03 Eh
 * total energy  :   -57.8154100 Eh     change       -0.2077758E-03 Eh
 * total energy  :   -57.8155788 Eh     change       -0.1687474E-03 Eh
 * total energy  :   -57.8157027 Eh     change       -0.1238768E-03 Eh
 * total energy  :   -57.8159076 Eh     change       -0.1938500E-04 Eh
 * total energy  :   -57.8159209 Eh     change       -0.1332542E-04 Eh
 * total energy  :   -57.8159402 Eh     change       -0.1927277E-04 Eh
 * total energy  :   -57.8159611 Eh     change       -0.2094585E-04 Eh
 * total energy  :   -57.8159720 Eh     change       -0.1086409E-04 Eh
 * total energy  :   -57.8159799 Eh     change       -0.7855122E-05 Eh
 * total energy  :   -57.8159853 Eh     change       -0.5402710E-05 Eh
 * total energy  :   -57.8159911 Eh     change       -0.5818670E-05 Eh
 * total energy  :   -57.8159960 Eh     change       -0.4868892E-05 Eh
   *** GEOMETRY OPTIMIZATION CONVERGED AFTER 24 ITERATIONS ***

 final structure:
================
33
 xtb: 6.5.1 (579679a)
C            4.04409260464989       -0.67870614854570        0.41295382613284
O            2.66824120889073       -0.20986457310500        0.27497574686648
C            2.39752549822810        1.02676446223988        1.00544811888901
C            2.19307590895000       -0.26272409212245       -1.13563611103620
O            3.03190595890079       -0.40309403912379       -1.97089295345475
C            0.76735316617332       -0.21256662451479       -1.28649938832303
N           -0.01566049231942       -0.11368761102632       -0.16037140179403
C           -1.30219415288674       -0.11167824405269       -0.30077336173935
C           -2.21087926592008        0.03870335950272        0.89736681951702
C           -1.67450486494132       -0.79750065569374        2.06649741840698
C           -2.24468982940289        1.52803895480198        1.26828911612712
N           -3.54725433714480       -0.38413506224220        0.49856030992404
N           -1.90270118018606       -0.19274312108401       -1.51402905682652
C           -1.25110127552121       -0.29678612372078       -2.71887447404552
O           -1.84164206098608       -0.36996906427191       -3.77511130045568
C            0.22132589147898       -0.30652934652396       -2.55843325232460
O            0.91404648590819       -0.41781597802362       -3.67318908531079
H            4.09757389569176       -1.64157450668741       -0.08894217335662
H            4.22590895384683       -0.78181126693094        1.47911099970775
H            4.72189452043544        0.04198793874976       -0.04258271271030
H            2.97474258143242        1.84042965836474        0.56814640063965
H            1.32688930983703        1.20292773147799        0.93466491949321
H            2.68832436713296        0.84132060288690        2.03617460557250
H           -0.66821502007793       -0.46977963479601        2.32327711366005
H           -2.32346521858733       -0.67593457246895        2.93177201223617
H           -1.64162233565535       -1.85048475129383        1.79061945976565
H           -1.23616215053462        1.87862383600154        1.48226613194356
H           -2.86444251037068        1.67142147656255        2.15190637236335
H           -2.65650056047816        2.10995303189607        0.44465960076317
H           -4.23140034996290        0.02082733609823        1.12291911138258
H           -3.61924975466386       -1.39021345140218        0.57486909649762
H           -2.92222012069013       -0.19416130039403       -1.50234130407922
H            1.88100412876974       -0.43924022056224       -3.53680260445078

          :  Hamiltonian                  GFN1-xTB          :
         :: total energy             -57.815995955198 Eh    ::
         :: gradient norm              0.000865565765 Eh/a0 ::
         :: HOMO-LUMO gap              1.385587368033 eV    ::
         :: SCC energy               -58.396906575277 Eh    ::
         :: -> Gsolv                  -0.106299771101 Eh    ::
         :: repulsion energy           0.600186508023 Eh    ::

    * Orbital Energies and Occupations

         #    Occupation            Energy/Eh            Energy/eV
      -------------------------------------------------------------
         1        2.0000           -0.9310433             -25.3350
       ...           ...                  ...                  ...
        35        2.0000           -0.5557180             -15.1219
        36        2.0000           -0.5523810             -15.0311
        37        2.0000           -0.5445121             -14.8169
        38        2.0000           -0.5277260             -14.3602
        39        2.0000           -0.5234097             -14.2427
        40        2.0000           -0.5170053             -14.0684
        41        2.0000           -0.5138624             -13.9829
        42        2.0000           -0.5104843             -13.8910
        43        2.0000           -0.4979947             -13.5511
        44        2.0000           -0.4832734             -13.1505
        45        2.0000           -0.4775884             -12.9958
        46        2.0000           -0.4575265             -12.4499
        47        2.0000           -0.4296785             -11.6921 (HOMO)
        48                         -0.3787591             -10.3066 (LUMO)
        49                         -0.3078376              -8.3767
        50                         -0.2849061              -7.7527
        51                         -0.1950966              -5.3088
        52                         -0.1804160              -4.9094
        53                         -0.1707771              -4.6471
        54                         -0.1361095              -3.7037
        55                         -0.1327069              -3.6111
        56                         -0.1302758              -3.5450
        57                         -0.1269277              -3.4539
        58                         -0.1148532              -3.1253
       ...                                ...                  ...
       100                          0.7221628              19.6511
      -------------------------------------------------------------
                  HL-Gap            0.0509194 Eh            1.3856 eV

Wiberg/Mayer (AO) data.
largest (>0.10) Wiberg bond orders for each atom

     #   Z sym  total        # sym  WBO       # sym  WBO       # sym  WBO
 ---------------------------------------------------------------------------
     1   6 C    3.782 --    20 H    0.979    19 H    0.977    18 H    0.975
                             2 O    0.811
     2   8 O    2.499 --     1 C    0.811     3 C    0.801     4 C    0.769
     3   6 C    3.776 --    21 H    0.981    23 H    0.976    22 H    0.965
                             2 O    0.801
     4   6 C    3.805 --     5 O    1.749     6 C    1.134     2 O    0.769
     5   8 O    2.070 --     4 C    1.749
     6   6 C    3.959 --    16 C    1.406     7 N    1.158     4 C    1.134
     7   7 N    3.034 --     8 C    1.560     6 C    1.158
     8   6 C    3.912 --     7 N    1.560    13 N    1.191     9 C    0.980
     9   6 C    3.964 --    12 N    0.991    10 C    0.983     8 C    0.980
                            11 C    0.974
    10   6 C    3.992 --    26 H    0.984    25 H    0.984    24 H    0.983
                             9 C    0.983
    11   6 C    3.990 --    29 H    0.985    27 H    0.985    28 H    0.981
                             9 C    0.974
    12   7 N    2.986 --     9 C    0.991    31 H    0.937    30 H    0.933
    13   7 N    3.484 --     8 C    1.191    14 C    1.140    32 H    0.854
                            15 O    0.141
    14   6 C    3.914 --    15 O    1.629    13 N    1.140    16 C    1.022
    15   8 O    1.930 --    14 C    1.629    13 N    0.141
    16   6 C    3.907 --     6 C    1.406    17 O    1.178    14 C    1.022
    17   8 O    2.153 --    16 C    1.178    33 H    0.780
    18   1 H    0.996 --     1 C    0.975
    19   1 H    0.994 --     1 C    0.977
    20   1 H    0.995 --     1 C    0.979
    21   1 H    0.991 --     3 C    0.981
    22   1 H    1.021 --     3 C    0.965
    23   1 H    0.994 --     3 C    0.976
    24   1 H    1.007 --    10 C    0.983
    25   1 H    1.000 --    10 C    0.984
    26   1 H    1.002 --    10 C    0.984
    27   1 H    1.003 --    11 C    0.985
    28   1 H    0.998 --    11 C    0.981
    29   1 H    1.001 --    11 C    0.985
    30   1 H    0.947 --    12 N    0.933
    31   1 H    0.950 --    12 N    0.937
    32   1 H    0.940 --    13 N    0.854
    33   1 H    0.831 --    17 O    0.780
 ---------------------------------------------------------------------------

           -------------------------------------------------
          | TOTAL ENERGY              -57.815995955198 Eh   |
          | GRADIENT NORM               0.000865565765 Eh/α |
          | HOMO-LUMO GAP               1.385587368033 eV   |
           -------------------------------------------------

 * finished run on 2023/06/20 at 15:10:17.218
