   * xtb version 6.5.1 (579679a) compiled by 'ehlert@majestix' on 2022-07-11
          program call               : /lustre/hpc/kemi/ree/PhD/git/ReactivityQM/dep/xtb-6.5.1/bin/xtb --gfn 1 /lustre/hpc/kemi/ree/PhD/git/ReactivityQM/calculations/R02/reac01prodN12/conf13/R02_reac01prodN12_conf13_gfn1.xyz --opt --vfukui --chrg 1 --uhf 0 --alpb DMSO

   ID    Z sym.   atoms
    1    6 C      1, 3, 5, 7-10, 12, 14, 15, 18, 19, 22, 24
    2    8 O      2, 4, 13, 20, 23, 25
    3    7 N      6, 11, 16, 17, 21
    4    1 H      26-43

      * Solvation model:               ALPB
        Solvent                        DMSO
        Solvent mass                       7.8130E+01 g/mol
          :  Hamiltonian                  GFN1-xTB          :
 * total energy  :   -83.1067549 Eh     change       -0.9701608E-09 Eh
 * total energy  :   -83.1221573 Eh     change       -0.1540237E-01 Eh
 * total energy  :   -83.1289759 Eh     change       -0.6818603E-02 Eh
 * total energy  :   -83.1305799 Eh     change       -0.1603986E-02 Eh
 * total energy  :   -83.1316027 Eh     change       -0.1022836E-02 Eh
 * total energy  :   -83.1320850 Eh     change       -0.4823275E-03 Eh
 * total energy  :   -83.1324414 Eh     change       -0.3564100E-03 Eh
 * total energy  :   -83.1327302 Eh     change       -0.2887584E-03 Eh
 * total energy  :   -83.1329273 Eh     change       -0.1970588E-03 Eh
 * total energy  :   -83.1330736 Eh     change       -0.1463175E-03 Eh
 * total energy  :   -83.1340409 Eh     change       -0.3533681E-04 Eh
 * total energy  :   -83.1340792 Eh     change       -0.3828756E-04 Eh
 * total energy  :   -83.1341148 Eh     change       -0.3558240E-04 Eh
 * total energy  :   -83.1341520 Eh     change       -0.3722342E-04 Eh
 * total energy  :   -83.1341703 Eh     change       -0.1823739E-04 Eh
 * total energy  :   -83.1342017 Eh     change       -0.3146486E-04 Eh
 * total energy  :   -83.1342126 Eh     change       -0.1088365E-04 Eh
 * total energy  :   -83.1342270 Eh     change       -0.1443231E-04 Eh
 * total energy  :   -83.1342319 Eh     change       -0.4835694E-05 Eh
   *** GEOMETRY OPTIMIZATION CONVERGED AFTER 48 ITERATIONS ***

 final structure:
================
43
 xtb: 6.5.1 (579679a)
C            6.31530473227599       -1.52575475594383        0.82855081503556
O            4.90565814884318       -1.65711122996222        0.57478900199649
C            4.22094669697029       -0.51289237981725        0.47552803653758
O            4.73147399781038        0.57408127687315        0.58736719047311
C            2.76726351179365       -0.71814785018818        0.20476776510016
N            2.08840962885452        0.46923315087597        0.06045202575626
C            0.83155497728724        0.44927280897981       -0.20444379071819
C            0.06519367649087        1.74846029177246       -0.35396279767365
C            0.24962062987935        2.27955967995924       -1.77488130317162
C            0.54949312133396        2.75920992733530        0.68941571225903
N           -1.34963791051235        1.42473527642503       -0.05100899863304
C           -2.40078919869466        1.71685203060757       -0.79022206967839
O           -2.52421838298717        2.39749204693936       -1.76545871527147
C           -3.72681323606325        0.93366266143561       -0.23939574105866
C           -4.94060291847435        1.45142334068017       -0.99523601753248
N           -3.75800876606491        1.06170922067618        1.15639817919009
N           -3.50189110251778       -0.05696425873454        1.69828717786115
C           -3.35152540177549       -0.98597660835703        0.69868999187797
C           -3.03863804087244       -2.39506813260633        0.87886164284897
O           -3.48555492772153       -0.43667186789821       -0.45857345667718
N            0.14453383106092       -0.71855972652962       -0.35960209044643
C            0.68074019579063       -1.96846795911493       -0.12923758583791
O           -0.03502383613011       -2.95731185718056       -0.15077536724900
C            2.12299007816368       -1.93011445027359        0.13203962852797
O            2.68550341500421       -3.12719387997487        0.29570684443348
H            6.77378641732380       -0.90982336477255        0.05210833098731
H            6.47032960618030       -1.06199464516129        1.80493652332870
H            6.72857445875869       -2.53101247191976        0.81320036605250
H            1.31766692279841        2.39584975501135       -1.95796243577699
H           -0.15963431399242        1.58074105270162       -2.50178513995022
H           -0.23606997929451        3.24644923365209       -1.88943089776224
H            1.61893483741593        2.91976191089972        0.55663916926193
H            0.01999768666028        3.70201430416511        0.56805003296369
H            0.37232033949098        2.37461602534591        1.69223418144802
H           -1.49308850260080        0.90721813625378        0.80254916694294
H           -5.82310911575172        0.90331289334834       -0.67385654385603
H           -4.77686489111325        1.30433271497672       -2.06101317361113
H           -5.05841562374209        2.51214527227879       -0.78481253770563
H           -2.00233991662017       -2.57149253498777        0.54922130861466
H           -3.13966204367316       -2.68790765577206        1.92134903644375
H           -3.66816200700969       -3.00494962962498        0.22823799233958
H           -0.83255164956899       -0.69549701007866       -0.60190868876398
H            3.64230485500852       -3.07382674230186        0.47418923109072

          :  Hamiltonian                  GFN1-xTB          :
         :: total energy             -83.134231872471 Eh    ::
         :: gradient norm              0.000826616631 Eh/a0 ::
         :: HOMO-LUMO gap              0.545752001588 eV    ::
         :: SCC energy               -83.926684354516 Eh    ::
         :: -> Gsolv                  -0.113635175147 Eh    ::
         :: repulsion energy           0.821077584556 Eh    ::

    * Orbital Energies and Occupations

         #    Occupation            Energy/Eh            Energy/eV
      -------------------------------------------------------------
         1        2.0000           -0.9332652             -25.3954
       ...           ...                  ...                  ...
        55        2.0000           -0.5357965             -14.5798
        56        2.0000           -0.5320361             -14.4774
        57        2.0000           -0.5225005             -14.2180
        58        2.0000           -0.5214912             -14.1905
        59        2.0000           -0.5155131             -14.0278
        60        2.0000           -0.5065304             -13.7834
        61        2.0000           -0.5063423             -13.7783
        62        2.0000           -0.5031173             -13.6905
        63        2.0000           -0.5008160             -13.6279
        64        2.0000           -0.4970605             -13.5257
        65        2.0000           -0.4763880             -12.9632
        66        2.0000           -0.4651923             -12.6585
        67        1.9999           -0.4463063             -12.1446 (HOMO)
        68        0.0001           -0.4262502             -11.5989 (LUMO)
        69                         -0.3391041              -9.2275
        70                         -0.3321230              -9.0375
        71                         -0.3071065              -8.3568
        72                         -0.2996846              -8.1548
        73                         -0.2547942              -6.9333
        74                         -0.1746476              -4.7524
        75                         -0.1658256              -4.5123
        76                         -0.1564888              -4.2583
        77                         -0.1421897              -3.8692
        78                         -0.1413715              -3.8469
       ...                                ...                  ...
       136                          0.7430247              20.2187
      -------------------------------------------------------------
                  HL-Gap            0.0200560 Eh            0.5458 eV

Wiberg/Mayer (AO) data.
largest (>0.10) Wiberg bond orders for each atom

     #   Z sym  total        # sym  WBO       # sym  WBO       # sym  WBO
 ---------------------------------------------------------------------------
     1   6 C    3.855 --    28 H    0.986    26 H    0.980    27 H    0.979
                             2 O    0.879
     2   8 O    2.209 --     3 C    1.097     1 C    0.879     4 O    0.133
     3   6 C    3.850 --     4 O    1.677     2 O    1.097     5 C    0.999
     4   8 O    1.939 --     3 C    1.677     2 O    0.133
     5   6 C    3.959 --    24 C    1.495     6 N    1.174     3 C    0.999
     6   7 N    3.030 --     7 C    1.601     5 C    1.174
     7   6 C    3.935 --     6 N    1.601    21 N    1.161     8 C    0.975
     8   6 C    3.904 --     9 C    0.985    10 C    0.984     7 C    0.975
                            11 N    0.881
     9   6 C    3.981 --     8 C    0.985    30 H    0.982    29 H    0.980
                            31 H    0.978
    10   6 C    3.984 --     8 C    0.984    34 H    0.983    33 H    0.983
                            32 H    0.978
    11   7 N    3.385 --    12 C    1.352    35 H    0.886     8 C    0.881
                            13 O    0.181
    12   6 C    3.908 --    13 O    1.688    11 N    1.352    14 C    0.711
    13   8 O    2.084 --    12 C    1.688    11 N    0.181
    14   6 C    3.833 --    16 N    1.117    15 C    0.936    20 O    0.904
                            12 C    0.711
    15   6 C    3.952 --    38 H    0.976    36 H    0.976    37 H    0.974
                            14 C    0.936
    16   7 N    3.007 --    17 N    1.627    14 C    1.117
    17   7 N    3.016 --    16 N    1.627    18 C    1.204
    18   6 C    3.806 --    20 O    1.270    17 N    1.204    19 C    1.091
    19   6 C    3.960 --    18 C    1.091    40 H    0.972    41 H    0.934
                            39 H    0.881
    20   8 O    2.368 --    18 C    1.270    14 C    0.904
    21   7 N    3.456 --     7 C    1.161    22 C    1.123    42 H    0.884
                            23 O    0.130
    22   6 C    3.904 --    23 O    1.583    21 N    1.123    24 C    1.060
    23   8 O    1.929 --    22 C    1.583    21 N    0.130
    24   6 C    3.919 --     5 C    1.495    25 O    1.122    22 C    1.060
    25   8 O    2.100 --    24 C    1.122    43 H    0.793
    26   1 H    1.006 --     1 C    0.980
    27   1 H    1.005 --     1 C    0.979
    28   1 H    1.008 --     1 C    0.986
    29   1 H    0.999 --     9 C    0.980
    30   1 H    0.999 --     9 C    0.982
    31   1 H    1.002 --     9 C    0.978
    32   1 H    1.005 --    10 C    0.978
    33   1 H    0.998 --    10 C    0.983
    34   1 H    0.998 --    10 C    0.983
    35   1 H    0.932 --    11 N    0.886
    36   1 H    0.991 --    15 C    0.976
    37   1 H    0.996 --    15 C    0.974
    38   1 H    0.994 --    15 C    0.976
    39   1 H    0.997 --    19 C    0.881
    40   1 H    0.988 --    19 C    0.972
    41   1 H    0.981 --    19 C    0.934
    42   1 H    0.934 --    21 N    0.884
    43   1 H    0.846 --    25 O    0.793
 ---------------------------------------------------------------------------

           -------------------------------------------------
          | TOTAL ENERGY              -83.134231872471 Eh   |
          | GRADIENT NORM               0.000826616631 Eh/α |
          | HOMO-LUMO GAP               0.545752001588 eV   |
           -------------------------------------------------

 * finished run on 2023/06/20 at 15:34:43.830
