                         Program Version 5.0.1 -  RELEASE  -
|  1> # ORCA input file
|  2> ! SP r2SCAN-3c CPCM
|  3>
|  4> %maxcore 1875.0
|  5> %pal nprocs 4 end
|  6> %cpcm smd true SMDsolvent "DMSO" end
|  7>
|  8> *xyz 1 1
|  9> C      -4.179080    3.411075    2.543616
| 10> O      -3.340326    2.410241    1.942460
| 11> C      -3.940590    1.475265    1.243014
| 12> O      -5.141586    1.408065    1.065952
| 13> C      -3.015044    0.464483    0.659344
| 14> C      -3.505715   -0.583171   -0.064800
| 15> O      -4.783127   -0.818089   -0.298786
| 16> C      -2.586039   -1.607899   -0.575245
| 17> O      -2.854843   -2.679626   -1.008521
| 18> N      -1.133197   -1.155713   -0.616142
| 19> C      -1.075366   -0.423261   -1.933035
| 20> C      -0.280526   -2.371687   -0.690417
| 21> C      -0.774953   -0.181552    0.471855
| 22> C       0.621688   -0.056814    1.051031
| 23> C       0.753892    1.326927    1.710674
| 24> C       0.815389   -1.137572    2.126649
| 25> N       1.674012   -0.219184    0.054735
| 26> C       1.846105    0.682814   -0.948844
| 27> O       1.014117    1.516319   -1.265855
| 28> C       3.126378    0.504443   -1.658995
| 29> N       3.600959    1.195362   -2.648667
| 30> N       4.810286    0.657992   -2.958425
| 31> C       5.003987   -0.330783   -2.139657
| 32> C       6.165766   -1.242060   -2.070440
| 33> O       3.975148   -0.479738   -1.289806
| 34> N      -1.675300    0.548027    0.973281
| 35> H      -4.908751    2.932574    3.199794
| 36> H      -3.518817    4.062639    3.111255
| 37> H      -4.699145    3.971191    1.763905
| 38> H      -5.343691   -0.111733    0.115605
| 39> H      -0.034064   -0.343285   -2.222834
| 40> H      -1.509895    0.564601   -1.804706
| 41> H      -1.623974   -1.003129   -2.671274
| 42> H      -0.455950   -2.971376    0.197505
| 43> H      -0.570445   -2.926848   -1.579279
| 44> H       0.756159   -2.064887   -0.762712
| 45> H       0.086358    1.388145    2.567713
| 46> H       0.496354    2.114070    1.004672
| 47> H       1.781028    1.460697    2.044212
| 48> H       1.735273   -0.930911    2.671223
| 49> H      -0.020409   -1.117874    2.824056
| 50> H       0.889442   -2.128182    1.687114
| 51> H       2.464658   -0.785058    0.320307
| 52> H       6.900143   -0.962342   -2.822592
| 53> H       5.837910   -2.267611   -2.240055
| 54> H       6.615781   -1.194546   -1.078890
| 55> **                         ****END OF INPUT****

CARTESIAN COORDINATES (ANGSTROEM)
---------------------------------
  C     -4.179080    3.411075    2.543616
  O     -3.340326    2.410241    1.942460
  C     -3.940590    1.475265    1.243014
  O     -5.141586    1.408065    1.065952
  C     -3.015044    0.464483    0.659344
  C     -3.505715   -0.583171   -0.064800
  O     -4.783127   -0.818089   -0.298786
  C     -2.586039   -1.607899   -0.575245
  O     -2.854843   -2.679626   -1.008521
  N     -1.133197   -1.155713   -0.616142
  C     -1.075366   -0.423261   -1.933035
  C     -0.280526   -2.371687   -0.690417
  C     -0.774953   -0.181552    0.471855
  C      0.621688   -0.056814    1.051031
  C      0.753892    1.326927    1.710674
  C      0.815389   -1.137572    2.126649
  N      1.674012   -0.219184    0.054735
  C      1.846105    0.682814   -0.948844
  O      1.014117    1.516319   -1.265855
  C      3.126378    0.504443   -1.658995
  N      3.600959    1.195362   -2.648667
  N      4.810286    0.657992   -2.958425
  C      5.003987   -0.330783   -2.139657
  C      6.165766   -1.242060   -2.070440
  O      3.975148   -0.479738   -1.289806
  N     -1.675300    0.548027    0.973281
  H     -4.908751    2.932574    3.199794
  H     -3.518817    4.062639    3.111255
  H     -4.699145    3.971191    1.763905
  H     -5.343691   -0.111733    0.115605
  H     -0.034064   -0.343285   -2.222834
  H     -1.509895    0.564601   -1.804706
  H     -1.623974   -1.003129   -2.671274
  H     -0.455950   -2.971376    0.197505
  H     -0.570445   -2.926848   -1.579279
  H      0.756159   -2.064887   -0.762712
  H      0.086358    1.388145    2.567713
  H      0.496354    2.114070    1.004672
  H      1.781028    1.460697    2.044212
  H      1.735273   -0.930911    2.671223
  H     -0.020409   -1.117874    2.824056
  H      0.889442   -2.128182    1.687114
  H      2.464658   -0.785058    0.320307
  H      6.900143   -0.962342   -2.822592
  H      5.837910   -2.267611   -2.240055
  H      6.615781   -1.194546   -1.078890

 Total Charge           Charge          ....    1
 Multiplicity           Mult            ....    1
 Number of Electrons    NEL             ....  192
 Basis Dimension        Dim             ....  649

ORBITAL ENERGIES
----------------

  NO   OCC          E(Eh)            E(eV)
   0   2.0000     -19.072225      -518.9816
   1   2.0000     -19.026150      -517.7279
   2   2.0000     -19.024395      -517.6801
   3   2.0000     -19.014498      -517.4108
   4   2.0000     -18.972376      -516.2646
   5   2.0000     -18.951340      -515.6922
   6   2.0000     -14.324979      -389.8025
   7   2.0000     -14.215582      -386.8256
   8   2.0000     -14.212814      -386.7503
   9   2.0000     -14.205592      -386.5538
  10   2.0000     -14.203157      -386.4876
  11   2.0000     -10.211833      -277.8781
  12   2.0000     -10.192037      -277.3394
  13   2.0000     -10.170243      -276.7464
  14   2.0000     -10.163557      -276.5644
  15   2.0000     -10.162278      -276.5297
  16   2.0000     -10.153519      -276.2913
  17   2.0000     -10.150233      -276.2019
  18   2.0000     -10.125511      -275.5291
  19   2.0000     -10.124376      -275.4983
  20   2.0000     -10.097674      -274.7717
  21   2.0000     -10.088204      -274.5140
  22   2.0000     -10.085922      -274.4519
  23   2.0000     -10.048629      -273.4371
  24   2.0000     -10.038171      -273.1525
  25   2.0000     -10.026827      -272.8438
  26   2.0000      -1.162296       -31.6277
  27   2.0000      -1.110137       -30.2084
  28   2.0000      -1.104823       -30.0638
  29   2.0000      -1.074455       -29.2374
  30   2.0000      -1.041067       -28.3289
  31   2.0000      -1.020831       -27.7782
  32   2.0000      -1.016092       -27.6493
  33   2.0000      -0.983285       -26.7566
  34   2.0000      -0.944632       -25.7047
  35   2.0000      -0.929229       -25.2856
  36   2.0000      -0.839519       -22.8445
  37   2.0000      -0.813718       -22.1424
  38   2.0000      -0.769393       -20.9363
  39   2.0000      -0.748278       -20.3617
  40   2.0000      -0.728685       -19.8285
  41   2.0000      -0.718694       -19.5567
  42   2.0000      -0.702913       -19.1272
  43   2.0000      -0.678604       -18.4658
  44   2.0000      -0.673487       -18.3265
  45   2.0000      -0.662086       -18.0163
  46   2.0000      -0.660086       -17.9619
  47   2.0000      -0.609813       -16.5939
  48   2.0000      -0.598478       -16.2854
  49   2.0000      -0.590746       -16.0750
  50   2.0000      -0.581302       -15.8180
  51   2.0000      -0.564867       -15.3708
  52   2.0000      -0.550532       -14.9807
  53   2.0000      -0.542054       -14.7500
  54   2.0000      -0.520567       -14.1654
  55   2.0000      -0.509722       -13.8703
  56   2.0000      -0.505399       -13.7526
  57   2.0000      -0.501265       -13.6401
  58   2.0000      -0.481082       -13.0909
  59   2.0000      -0.476733       -12.9726
  60   2.0000      -0.471054       -12.8180
  61   2.0000      -0.468542       -12.7497
  62   2.0000      -0.466278       -12.6881
  63   2.0000      -0.448464       -12.2033
  64   2.0000      -0.441326       -12.0091
  65   2.0000      -0.433170       -11.7872
  66   2.0000      -0.430461       -11.7134
  67   2.0000      -0.419847       -11.4246
  68   2.0000      -0.411903       -11.2085
  69   2.0000      -0.407757       -11.0956
  70   2.0000      -0.405942       -11.0462
  71   2.0000      -0.398927       -10.8554
  72   2.0000      -0.394233       -10.7276
  73   2.0000      -0.391929       -10.6649
  74   2.0000      -0.388861       -10.5814
  75   2.0000      -0.386545       -10.5184
  76   2.0000      -0.384941       -10.4748
  77   2.0000      -0.381878       -10.3914
  78   2.0000      -0.378130       -10.2895
  79   2.0000      -0.370909       -10.0930
  80   2.0000      -0.360585        -9.8120
  81   2.0000      -0.357849        -9.7376
  82   2.0000      -0.352351        -9.5880
  83   2.0000      -0.350509        -9.5378
  84   2.0000      -0.340822        -9.2742
  85   2.0000      -0.332967        -9.0605
  86   2.0000      -0.321081        -8.7371
  87   2.0000      -0.309923        -8.4334
  88   2.0000      -0.300183        -8.1684
  89   2.0000      -0.296299        -8.0627
  90   2.0000      -0.274721        -7.4755
  91   2.0000      -0.271236        -7.3807
  92   2.0000      -0.269339        -7.3291
  93   2.0000      -0.263314        -7.1651
  94   2.0000      -0.261880        -7.1261
  95   2.0000      -0.244878        -6.6635
  96   0.0000      -0.158701        -4.3185
  97   0.0000      -0.099758        -2.7146
  98   0.0000      -0.074868        -2.0373
  99   0.0000      -0.041974        -1.1422
 100   0.0000      -0.026435        -0.7193

MULLIKEN ATOMIC CHARGES
-----------------------
   0 C :   -0.305760
   1 O :   -0.181238
   2 C :    0.215994
   3 O :   -0.476058
   4 C :    0.116459
   5 C :    0.086057
   6 O :   -0.344945
   7 C :    0.370585
   8 O :   -0.301130
   9 N :   -0.134758
  10 C :   -0.273880
  11 C :   -0.386370
  12 C :    0.197695
  13 C :    0.188973
  14 C :   -0.608786
  15 C :   -0.515725
  16 N :   -0.157930
  17 C :   -0.196917
  18 O :   -0.427063
  19 C :    0.457782
  20 N :   -0.164512
  21 N :   -0.278049
  22 C :    0.402366
  23 C :   -0.629909
  24 O :   -0.055721
  25 N :   -0.064275
  26 H :    0.185560
  27 H :    0.186036
  28 H :    0.186120
  29 H :    0.389819
  30 H :    0.218873
  31 H :    0.236780
  32 H :    0.220000
  33 H :    0.231161
  34 H :    0.215885
  35 H :    0.242864
  36 H :    0.191661
  37 H :    0.211367
  38 H :    0.195686
  39 H :    0.202366
  40 H :    0.206848
  41 H :    0.194344
  42 H :    0.338807
  43 H :    0.206809
  44 H :    0.203203
  45 H :    0.202924
Sum of atomic charges:    1.0000000

LOEWDIN ATOMIC CHARGES
----------------------
   0 C :   -0.023492
   1 O :   -0.541223
   2 C :    0.410203
   3 O :   -0.447030
   4 C :    0.222404
   5 C :    0.289243
   6 O :   -0.406666
   7 C :    0.442292
   8 O :   -0.292994
   9 N :   -0.822311
  10 C :   -0.030417
  11 C :   -0.057338
  12 C :    0.393414
  13 C :    0.111848
  14 C :   -0.325394
  15 C :   -0.327003
  16 N :   -0.600190
  17 C :    0.378957
  18 O :   -0.452736
  19 C :    0.411437
  20 N :   -0.325815
  21 N :   -0.352874
  22 C :    0.384593
  23 C :   -0.315491
  24 O :   -0.390604
  25 N :   -0.509895
  26 H :    0.188752
  27 H :    0.191909
  28 H :    0.188202
  29 H :    0.326542
  30 H :    0.225493
  31 H :    0.219521
  32 H :    0.213547
  33 H :    0.212199
  34 H :    0.219070
  35 H :    0.223329
  36 H :    0.179979
  37 H :    0.186659
  38 H :    0.175082
  39 H :    0.181979
  40 H :    0.183452
  41 H :    0.177371
  42 H :    0.305018
  43 H :    0.192328
  44 H :    0.193482
  45 H :    0.193167

  Mayer bond orders larger than 0.100000
B(  0-C ,  1-O ) :   0.8147 B(  0-C , 26-H ) :   0.9509 B(  0-C , 27-H ) :   0.9581
B(  0-C , 28-H ) :   0.9502 B(  1-O ,  2-C ) :   1.2307 B(  2-C ,  3-O ) :   1.7184
B(  2-C ,  4-C ) :   1.0739 B(  4-C ,  5-C ) :   1.4096 B(  4-C , 25-N ) :   0.9393
B(  5-C ,  6-O ) :   1.1605 B(  5-C ,  7-C ) :   1.0141 B(  6-O , 29-H ) :   0.7518
B(  7-C ,  8-O ) :   2.0406 B(  7-C ,  9-N ) :   0.7367 B(  9-N , 10-C ) :   0.9237
B(  9-N , 11-C ) :   0.8614 B(  9-N , 12-C ) :   0.9449 B( 10-C , 30-H ) :   0.9028
B( 10-C , 31-H ) :   0.9146 B( 10-C , 32-H ) :   0.9048 B( 11-C , 33-H ) :   0.9353
B( 11-C , 34-H ) :   0.9116 B( 11-C , 35-H ) :   0.9101 B( 12-C , 13-C ) :   0.8797
B( 12-C , 25-N ) :   1.7588 B( 13-C , 14-C ) :   0.8604 B( 13-C , 15-C ) :   0.9355
B( 13-C , 16-N ) :   0.7288 B( 14-C , 36-H ) :   0.9492 B( 14-C , 37-H ) :   0.9623
B( 14-C , 38-H ) :   0.9746 B( 15-C , 39-H ) :   0.9539 B( 15-C , 40-H ) :   0.9596
B( 15-C , 41-H ) :   0.9395 B( 16-N , 17-C ) :   1.1338 B( 16-N , 42-H ) :   0.8825
B( 17-C , 18-O ) :   1.8747 B( 17-C , 19-C ) :   0.7873 B( 17-C , 21-N ) :   0.1089
B( 18-O , 19-C ) :  -0.1116 B( 19-C , 20-N ) :   1.7200 B( 19-C , 22-C ) :   0.1304
B( 19-C , 24-O ) :   1.0785 B( 20-N , 21-N ) :   1.2694 B( 21-N , 22-C ) :   1.6049
B( 22-C , 23-C ) :   0.8261 B( 22-C , 24-O ) :   1.0636 B( 23-C , 43-H ) :   0.9883
B( 23-C , 44-H ) :   0.9402 B( 23-C , 45-H ) :   0.9424

Dispersion correction           -0.022164966
FINAL SINGLE POINT ENERGY     -1308.323027725750

DIPOLE MOMENT
-------------
                                X             Y             Z
Electronic contribution:     -8.20443       0.74072      -7.82898
Nuclear contribution   :      8.75686      -3.84164      10.18925
                        -----------------------------------------
Total Dipole Moment    :      0.55243      -3.10092       2.36027
                        -----------------------------------------
Magnitude (a.u.)       :      3.93595
Magnitude (Debye)      :     10.00440

Rotational constants in cm-1:     0.013871     0.003620     0.003280
Rotational constants in MHz :   415.855917   108.513276    98.327063

                             ****ORCA TERMINATED NORMALLY****
TOTAL RUN TIME: 0 days 0 hours 1 minutes 44 seconds 67 msec
