   * xtb version 6.5.1 (579679a) compiled by 'ehlert@majestix' on 2022-07-11
          program call               : /lustre/hpc/kemi/ree/PhD/git/ReactivityQM/dep/xtb-6.5.1/bin/xtb --gfn 1 /lustre/hpc/kemi/ree/PhD/git/ReactivityQM/calculations/R03/reac02prodN18/conf06/R03_reac02prodN18_conf06_gfn1.xyz --opt --vfukui --chrg 1 --uhf 0 --alpb DMSO

   ID    Z sym.   atoms
    1    6 C      1, 3, 5, 6, 8, 11-16, 18, 20, 23, 24
    2    8 O      2, 4, 7, 9, 19, 25
    3    7 N      10, 17, 21, 22, 26
    4    1 H      27-46

      * Solvation model:               ALPB
        Solvent                        DMSO
        Solvent mass                       7.8130E+01 g/mol
          :  Hamiltonian                  GFN1-xTB          :
 * total energy  :   -86.2823634 Eh     change       -0.6650680E-10 Eh
 * total energy  :   -86.2979928 Eh     change       -0.1562934E-01 Eh
 * total energy  :   -86.3041920 Eh     change       -0.6199270E-02 Eh
 * total energy  :   -86.3057317 Eh     change       -0.1539709E-02 Eh
 * total energy  :   -86.3067308 Eh     change       -0.9990958E-03 Eh
 * total energy  :   -86.3074174 Eh     change       -0.6866202E-03 Eh
 * total energy  :   -86.3080547 Eh     change       -0.6372092E-03 Eh
 * total energy  :   -86.3086561 Eh     change       -0.6014173E-03 Eh
 * total energy  :   -86.3090058 Eh     change       -0.3497455E-03 Eh
 * total energy  :   -86.3091258 Eh     change       -0.1199603E-03 Eh
 * total energy  :   -86.3105934 Eh     change       -0.1314951E-04 Eh
 * total energy  :   -86.3106012 Eh     change       -0.7784744E-05 Eh
 * total energy  :   -86.3106113 Eh     change       -0.1009348E-04 Eh
 * total energy  :   -86.3106286 Eh     change       -0.1732541E-04 Eh
 * total energy  :   -86.3106394 Eh     change       -0.1075708E-04 Eh
 * total energy  :   -86.3106484 Eh     change       -0.8963134E-05 Eh
 * total energy  :   -86.3106561 Eh     change       -0.7775817E-05 Eh
 * total energy  :   -86.3106623 Eh     change       -0.6184512E-05 Eh
 * total energy  :   -86.3106673 Eh     change       -0.4958870E-05 Eh
   *** GEOMETRY OPTIMIZATION CONVERGED AFTER 55 ITERATIONS ***

 final structure:
================
46
 xtb: 6.5.1 (579679a)
C           -4.17907966126785        3.41107469498224        2.54361643690738
O           -3.34032625084781        2.41024055667494        1.94246002289993
C           -3.94058997229378        1.47526531095472        1.24301355590908
O           -5.14158633753252        1.40806497103518        1.06595155516855
C           -3.01504352990145        0.46448330756793        0.65934374169104
C           -3.50571468902774       -0.58317078735483       -0.06479998985379
O           -4.78312732986835       -0.81808867268604       -0.29878589791475
C           -2.58603914736005       -1.60789916850486       -0.57524480660948
O           -2.85484260191040       -2.67962599735828       -1.00852085596704
N           -1.13319651910201       -1.15571278088463       -0.61614207269894
C           -1.07536589928067       -0.42326105832919       -1.93303546803673
C           -0.28052571415089       -2.37168686567675       -0.69041705738345
C           -0.77495348510380       -0.18155243459361        0.47185462095560
C            0.62168802036414       -0.05681424106863        1.05103137899670
C            0.75389180599140        1.32692695528843        1.71067425167809
C            0.81538882804270       -1.13757180057792        2.12664900605836
N            1.67401233024261       -0.21918382048359        0.05473539465658
C            1.84610461709559        0.68281433338996       -0.94884403343933
O            1.01411669164346        1.51631942637765       -1.26585542291064
C            3.12637759703953        0.50444259985597       -1.65899497290456
N            3.60095868746750        1.19536171909236       -2.64866674735592
N            4.81028568880674        0.65799235337291       -2.95842510295454
C            5.00398748400484       -0.33078343764589       -2.13965702797278
C            6.16576618576756       -1.24206004366783       -2.07044036742162
O            3.97514845153081       -0.47973826776633       -1.28980625109279
N           -1.67529989514690        0.54802678997232        0.97328111267552
H           -4.90875074623383        2.93257443171025        3.19979415582244
H           -3.51881745029862        4.06263941368349        3.11125507768852
H           -4.69914462016109        3.97119060358266        1.76390547629129
H           -5.34369065234109       -0.11173277815841        0.11560544486194
H           -0.03406424567828       -0.34328456646992       -2.22283421582593
H           -1.50989462130943        0.56460075347846       -1.80470553489467
H           -1.62397373080256       -1.00312856028461       -2.67127378756934
H           -0.45595046438171       -2.97137587333467        0.19750483163072
H           -0.57044483705404       -2.92684785649657       -1.57927944653765
H            0.75615894699942       -2.06488650707321       -0.76271181479931
H            0.08635821944972        1.38814542557777        2.56771281646784
H            0.49635352846547        2.11407028136295        1.00467157168360
H            1.78102841648393        1.46069717587554        2.04421214904665
H            1.73527262370433       -0.93091079692895        2.67122319370573
H           -0.02040911307446       -1.11787373514886        2.82405593921827
H            0.88944233243173       -2.12818249410298        1.68711448960041
H            2.46465821718234       -0.78505819578441        0.32030677681425
H            6.90014256483417       -0.96234186920254       -2.82259151763278
H            5.83791001085123       -2.26761144928532       -2.24005450202971
H            6.61578126573314       -1.19454604496278       -1.07889010662277

          :  Hamiltonian                  GFN1-xTB          :
         :: total energy             -86.310667288452 Eh    ::
         :: gradient norm              0.000749198887 Eh/a0 ::
         :: HOMO-LUMO gap              1.705705260787 eV    ::
         :: SCC energy               -87.142792233260 Eh    ::
         :: -> Gsolv                  -0.113067017489 Eh    ::
         :: repulsion energy           0.863526037113 Eh    ::

    * Orbital Energies and Occupations

         #    Occupation            Energy/Eh            Energy/eV
      -------------------------------------------------------------
         1        2.0000           -0.8988175             -24.4581
       ...           ...                  ...                  ...
        58        2.0000           -0.5312499             -14.4560
        59        2.0000           -0.5276755             -14.3588
        60        2.0000           -0.5208205             -14.1722
        61        2.0000           -0.5164543             -14.0534
        62        2.0000           -0.5149478             -14.0124
        63        2.0000           -0.5086785             -13.8418
        64        2.0000           -0.4924104             -13.3992
        65        2.0000           -0.4883494             -13.2887
        66        2.0000           -0.4839995             -13.1703
        67        2.0000           -0.4826570             -13.1338
        68        2.0000           -0.4735092             -12.8848
        69        2.0000           -0.4627380             -12.5917
        70        2.0000           -0.4610128             -12.5448 (HOMO)
        71                         -0.3983293             -10.8391 (LUMO)
        72                         -0.3300544              -8.9812
        73                         -0.3280549              -8.9268
        74                         -0.2982450              -8.1157
        75                         -0.2649208              -7.2089
        76                         -0.2147126              -5.8426
        77                         -0.2138042              -5.8179
        78                         -0.1665880              -4.5331
        79                         -0.1618493              -4.4041
        80                         -0.1481408              -4.0311
        81                         -0.1475969              -4.0163
       ...                                ...                  ...
       144                          0.7293431              19.8464
      -------------------------------------------------------------
                  HL-Gap            0.0626835 Eh            1.7057 eV

Wiberg/Mayer (AO) data.
largest (>0.10) Wiberg bond orders for each atom

     #   Z sym  total        # sym  WBO       # sym  WBO       # sym  WBO
 ---------------------------------------------------------------------------
     1   6 C    3.849 --    28 H    0.985    27 H    0.978    29 H    0.977
                             2 O    0.876
     2   8 O    2.238 --     3 C    1.168     1 C    0.876     4 O    0.140
     3   6 C    3.861 --     4 O    1.616     2 O    1.168     5 C    0.999
     4   8 O    1.963 --     3 C    1.616     2 O    0.140
     5   6 C    3.960 --     6 C    1.517    26 N    1.111     3 C    0.999
                             7 O    0.113
     6   6 C    3.930 --     5 C    1.517     7 O    1.164     8 C    1.026
     7   8 O    2.127 --     6 C    1.164    30 H    0.749     5 C    0.113
     8   6 C    3.857 --     9 O    1.825     6 C    1.026    10 N    0.844
     9   8 O    2.086 --     8 C    1.825
    10   7 N    3.613 --    12 C    0.894    13 C    0.865    11 C    0.859
                             8 C    0.844
    11   6 C    3.873 --    32 H    0.979    33 H    0.978    31 H    0.971
                            10 N    0.859
    12   6 C    3.880 --    34 H    0.978    35 H    0.976    36 H    0.974
                            10 N    0.894
    13   6 C    3.895 --    26 N    1.786    14 C    0.984    10 N    0.865
    14   6 C    3.933 --    13 C    0.984    15 C    0.979    16 C    0.968
                            17 N    0.938
    15   6 C    3.983 --    37 H    0.984    39 H    0.983    38 H    0.979
                            14 C    0.979
    16   6 C    3.982 --    41 H    0.983    42 H    0.979    40 H    0.976
                            14 C    0.968
    17   7 N    3.321 --    18 C    1.217    14 C    0.938    43 H    0.885
                            19 O    0.162
    18   6 C    3.910 --    19 O    1.588    17 N    1.217    20 C    1.008
    19   8 O    1.911 --    18 C    1.588    17 N    0.162
    20   6 C    3.877 --    21 N    1.612    25 O    1.046    18 C    1.008
    21   7 N    3.006 --    20 C    1.612    22 N    1.210
    22   7 N    2.983 --    23 C    1.599    21 N    1.210
    23   6 C    3.864 --    22 N    1.599    25 O    1.074    24 C    1.034
    24   6 C    3.984 --    23 C    1.034    44 H    0.982    46 H    0.961
                            45 H    0.960
    25   8 O    2.318 --    23 C    1.074    20 C    1.046
    26   7 N    3.091 --    13 C    1.786     5 C    1.111
    27   1 H    1.003 --     1 C    0.978
    28   1 H    1.007 --     1 C    0.985
    29   1 H    1.002 --     1 C    0.977
    30   1 H    0.829 --     7 O    0.749
    31   1 H    1.000 --    11 C    0.971
    32   1 H    1.000 --    11 C    0.979
    33   1 H    0.991 --    11 C    0.978
    34   1 H    0.996 --    12 C    0.978
    35   1 H    0.995 --    12 C    0.976
    36   1 H    1.003 --    12 C    0.974
    37   1 H    1.006 --    15 C    0.984
    38   1 H    1.009 --    15 C    0.979
    39   1 H    0.998 --    15 C    0.983
    40   1 H    0.992 --    16 C    0.976
    41   1 H    0.998 --    16 C    0.983
    42   1 H    0.998 --    16 C    0.979
    43   1 H    0.928 --    17 N    0.885
    44   1 H    0.997 --    24 C    0.982
    45   1 H    0.995 --    24 C    0.960
    46   1 H    0.995 --    24 C    0.961
 ---------------------------------------------------------------------------

           -------------------------------------------------
          | TOTAL ENERGY              -86.310667288452 Eh   |
          | GRADIENT NORM               0.000749198887 Eh/α |
          | HOMO-LUMO GAP               1.705705260787 eV   |
           -------------------------------------------------

 * finished run on 2023/06/20 at 15:54:48.185
