   * xtb version 6.5.1 (579679a) compiled by 'ehlert@majestix' on 2022-07-11
          program call               : /lustre/hpc/kemi/ree/PhD/git/ReactivityQM/dep/xtb-6.5.1/bin/xtb --gfn 1 /lustre/hpc/kemi/ree/PhD/git/ReactivityQM/calculations/RaltegravirCLI/reac02prodE07/conf10/RaltegravirCLI_reac02prodE07_conf10_gfn1.xyz --opt --vfukui --chrg -1 --uhf 0 --alpb DMSO

   ID    Z sym.   atoms
    1    6 C      1-4, 6-9, 11, 13, 15-18, 21, 22, 24
    2    9 F      5
    3    7 N      10, 14, 19, 20
    4    8 O      12, 23, 25
    5    1 H      26-47

      * Solvation model:               ALPB
        Solvent                        DMSO
        Solvent mass                       7.8130E+01 g/mol
          :  Hamiltonian                  GFN1-xTB          :
 * total energy  :   -80.1781127 Eh     change       -0.3694822E-12 Eh
 * total energy  :   -80.1872494 Eh     change       -0.9136699E-02 Eh
 * total energy  :   -80.1898066 Eh     change       -0.2557240E-02 Eh
 * total energy  :   -80.1903252 Eh     change       -0.5185646E-03 Eh
 * total energy  :   -80.1907795 Eh     change       -0.4543012E-03 Eh
 * total energy  :   -80.1910211 Eh     change       -0.2416541E-03 Eh
 * total energy  :   -80.1912234 Eh     change       -0.2022203E-03 Eh
 * total energy  :   -80.1913582 Eh     change       -0.1347994E-03 Eh
 * total energy  :   -80.1914377 Eh     change       -0.7955650E-04 Eh
 * total energy  :   -80.1915115 Eh     change       -0.7381613E-04 Eh
 * total energy  :   -80.1923051 Eh     change       -0.8568046E-05 Eh
 * total energy  :   -80.1923135 Eh     change       -0.8431647E-05 Eh
 * total energy  :   -80.1923199 Eh     change       -0.6367690E-05 Eh
 * total energy  :   -80.1923256 Eh     change       -0.5742015E-05 Eh
 * total energy  :   -80.1923315 Eh     change       -0.5875586E-05 Eh
 * total energy  :   -80.1923377 Eh     change       -0.6141829E-05 Eh
 * total energy  :   -80.1923439 Eh     change       -0.6238321E-05 Eh
 * total energy  :   -80.1923494 Eh     change       -0.5539778E-05 Eh
 * total energy  :   -80.1923543 Eh     change       -0.4841911E-05 Eh
   *** GEOMETRY OPTIMIZATION CONVERGED AFTER 35 ITERATIONS ***

 final structure:
================
47
 xtb: 6.5.1 (579679a)
C            4.32086697726620        1.09144398433997       -1.19764502766826
C            4.76573309635751       -0.35273573123050       -0.82741049856437
C            5.71709267325236       -0.31251133536509        0.35012680926830
C            5.32501666105892       -0.75891915969738        1.56521578598343
F            6.20437061623697       -0.62183305828200        2.60642718912913
C            4.11114966786005       -1.40254049058787        1.84705658839062
C            3.26949530640407       -1.64606756392149        0.74562241506738
C            3.56656494421004       -1.23661150285277       -0.52498165696922
C            2.65054189393356       -1.58065526996635       -1.67360721867731
N            1.44904410863305       -0.72648988321954       -1.66590073829678
C            0.31830854133106       -1.12200251998401       -1.04207169053758
O            0.13406003638557       -2.28865833066300       -0.68037443822202
C           -0.73036987077484       -0.08125633386333       -0.84242254912690
N           -1.82219532928940       -0.52820156540710       -0.14227199032852
C           -2.83359065510138        0.22790791717724        0.13126790724945
C           -3.93541324040738       -0.40268417545555        0.97817672609536
C           -3.91095434964103        0.20540607053400        2.38778677747242
C           -3.69205248729172       -1.91792388299990        1.07802368724557
N           -5.24702737631191       -0.15938179153080        0.37560875211237
N           -2.88299793340194        1.54313886148565       -0.27470527829342
C           -3.97445005588392        2.47098109315701        0.01404872337309
C           -1.82907484816295        2.09994257854862       -0.99285964810135
O           -1.85008167902122        3.28297705969597       -1.36150700061268
C           -0.72544039325469        1.22691985929011       -1.27330143371097
O            0.28889637386179        1.79961558489485       -1.97941244688832
H            3.71877877135601        1.08196544563872       -2.10621363396116
H            3.73220665353606        1.52265805247968       -0.38753842976329
H            5.19576349258411        1.71969152314160       -1.36822077433361
H            5.29787933744490       -0.74280226102872       -1.71615719353428
H            6.68393735385362        0.15387572178477        0.20597610692962
H            3.88061176995829       -1.75826590746641        2.84116544285239
H            2.36241259349798       -2.22571380646955        0.91188937049334
H            3.15282860798417       -1.43457968228222       -2.63668085342148
H            2.30775602576673       -2.62129356933765       -1.61849591266550
H            1.60860017269786        0.25460532409635       -1.83215727430378
H           -2.91904804748905        0.09380268342919        2.82560104396932
H           -4.16817465318658        1.26222465270355        2.36363652728549
H           -4.63259218138732       -0.30905134218916        3.02079774670881
H           -2.73877469760102       -2.12109691237949        1.56571137364081
H           -4.49328551650006       -2.37392776698513        1.65680898198008
H           -3.67824716451709       -2.36183217197087        0.08323388568810
H           -5.96541558738870       -0.47470906987933        1.01088467986958
H           -5.33801281319801       -0.69330673716456       -0.47843382135612
H           -4.10026494755977        3.12853026780701       -0.84721546939641
H           -4.89686374021864        1.92583541144186        0.19190309798741
H           -3.72133919654783        3.07708110383794        0.88558965531774
H            0.02375408866910        2.71785962668968       -2.17297329538115

          :  Hamiltonian                  GFN1-xTB          :
         :: total energy             -80.192354271610 Eh    ::
         :: gradient norm              0.000389555090 Eh/a0 ::
         :: HOMO-LUMO gap              0.167726518526 eV    ::
         :: SCC energy               -81.049393622472 Eh    ::
         :: -> Gsolv                  -0.105013762725 Eh    ::
         :: repulsion energy           0.887488850415 Eh    ::

    * Orbital Energies and Occupations

         #    Occupation            Energy/Eh            Energy/eV
      -------------------------------------------------------------
         1        2.0000           -0.8063545             -21.9420
       ...           ...                  ...                  ...
        56        2.0000           -0.4524038             -12.3105
        57        2.0000           -0.4458508             -12.1322
        58        2.0000           -0.4426518             -12.0452
        59        2.0000           -0.4404916             -11.9864
        60        2.0000           -0.4250516             -11.5662
        61        2.0000           -0.4227404             -11.5034
        62        2.0000           -0.4175858             -11.3631
        63        2.0000           -0.4133435             -11.2476
        64        2.0000           -0.4062587             -11.0549
        65        2.0000           -0.4035638             -10.9815
        66        2.0000           -0.3972771             -10.8105
        67        2.0000           -0.3804717             -10.3532
        68        1.9249           -0.2975629              -8.0971 (HOMO)
        69        0.0751           -0.2913990              -7.9294 (LUMO)
        70                         -0.2535274              -6.8988
        71                         -0.2048397              -5.5740
        72                         -0.1969372              -5.3589
        73                         -0.1296660              -3.5284
        74                         -0.1255529              -3.4165
        75                         -0.1229704              -3.3462
        76                         -0.1162511              -3.1634
        77                         -0.1095774              -2.9818
        78                         -0.0975008              -2.6531
        79                         -0.0940750              -2.5599
       ...                                ...                  ...
       144                          0.7120114              19.3748
      -------------------------------------------------------------
                  HL-Gap            0.0061638 Eh            0.1677 eV

Wiberg/Mayer (AO) data.
largest (>0.10) Wiberg bond orders for each atom

     #   Z sym  total        # sym  WBO       # sym  WBO       # sym  WBO
 ---------------------------------------------------------------------------
     1   6 C    3.981 --    27 H    0.989    28 H    0.986    26 H    0.984
                             2 C    0.968
     2   6 C    3.992 --     3 C    1.006     8 C    1.001     1 C    0.968
                            29 H    0.964
     3   6 C    3.839 --     4 C    1.605     2 C    1.006    30 H    0.974
     4   6 C    3.834 --     3 C    1.605     6 C    1.278     5 F    0.868
     5   9 F    0.981 --     4 C    0.868
     6   6 C    3.805 --     7 C    1.319     4 C    1.278    31 H    0.977
     7   6 C    3.995 --     8 C    1.593     6 C    1.319    32 H    0.971
     8   6 C    3.874 --     7 C    1.593     9 C    1.001     2 C    1.001
     9   6 C    3.940 --     8 C    1.001    33 H    0.979    34 H    0.974
                            10 N    0.917
    10   7 N    3.332 --    11 C    1.254     9 C    0.917    35 H    0.901
                            12 O    0.161
    11   6 C    3.898 --    12 O    1.526    10 N    1.254    13 C    1.020
    12   8 O    1.822 --    11 C    1.526    10 N    0.161
    13   6 C    3.900 --    24 C    1.438    14 N    1.184    11 C    1.020
    14   7 N    3.028 --    15 C    1.581    13 C    1.184
    15   6 C    3.904 --    14 N    1.581    20 N    1.152    16 C    0.975
    16   6 C    3.965 --    18 C    0.992    17 C    0.986    19 N    0.978
                            15 C    0.975
    17   6 C    3.993 --    16 C    0.986    36 H    0.986    38 H    0.984
                            37 H    0.983
    18   6 C    3.995 --    16 C    0.992    40 H    0.986    41 H    0.984
                            39 H    0.983
    19   7 N    2.993 --    16 C    0.978    43 H    0.942    42 H    0.942
    20   7 N    3.441 --    15 C    1.152    22 C    1.101    21 C    0.936
                            23 O    0.118
    21   6 C    3.931 --    46 H    0.978    44 H    0.977    45 H    0.970
                            20 N    0.936
    22   6 C    3.879 --    23 O    1.494    24 C    1.145    20 N    1.101
    23   8 O    1.827 --    22 C    1.494    20 N    0.118
    24   6 C    3.857 --    13 C    1.438    22 C    1.145    25 O    1.043
    25   8 O    2.031 --    24 C    1.043    47 H    0.814
    26   1 H    1.009 --     1 C    0.984
    27   1 H    1.018 --     1 C    0.989
    28   1 H    1.011 --     1 C    0.986
    29   1 H    1.010 --     2 C    0.964
    30   1 H    1.003 --     3 C    0.974
    31   1 H    1.004 --     6 C    0.977
    32   1 H    1.012 --     7 C    0.971
    33   1 H    1.010 --     9 C    0.979
    34   1 H    1.020 --     9 C    0.974
    35   1 H    0.967 --    10 N    0.901
    36   1 H    1.004 --    17 C    0.986
    37   1 H    1.005 --    17 C    0.983
    38   1 H    1.001 --    17 C    0.984
    39   1 H    1.015 --    18 C    0.983
    40   1 H    1.005 --    18 C    0.986
    41   1 H    1.012 --    18 C    0.984
    42   1 H    0.956 --    19 N    0.942
    43   1 H    0.958 --    19 N    0.942
    44   1 H    1.012 --    21 C    0.977
    45   1 H    1.031 --    21 C    0.970
    46   1 H    1.004 --    21 C    0.978
    47   1 H    0.861 --    25 O    0.814
 ---------------------------------------------------------------------------

           -------------------------------------------------
          | TOTAL ENERGY              -80.192354271610 Eh   |
          | GRADIENT NORM               0.000389555090 Eh/α |
          | HOMO-LUMO GAP               0.167726518526 eV   |
           -------------------------------------------------

 * finished run on 2023/06/20 at 15:06:09.890
