                         Program Version 5.0.1 -  RELEASE  -
|  1> # ORCA input file
|  2> ! SP r2SCAN-3c CPCM
|  3>
|  4> %maxcore 1875.0
|  5> %pal nprocs 4 end
|  6> %cpcm smd true SMDsolvent "DMSO" end
|  7>
|  8> *xyz -1 1
|  9> C      -3.094377   -2.259677   -1.681191
| 10> O      -2.624271   -1.144040   -0.931284
| 11> C      -3.556831   -0.403896   -0.309911
| 12> O      -4.744254   -0.663001   -0.391205
| 13> C      -2.964220    0.681073    0.600306
| 14> C      -4.005773    1.789558    0.805989
| 15> N      -1.772548    1.267946   -0.010003
| 16> C      -0.621908    0.813007    0.314862
| 17> C       0.603438    1.487338   -0.295851
| 18> C       1.079800    2.568949    0.678971
| 19> C       0.262589    2.104953   -1.654999
| 20> N       1.696640    0.519855   -0.436779
| 21> C       1.629583   -0.569042   -1.226220
| 22> O       0.658087   -0.917011   -1.878905
| 23> C       2.891545   -1.357207   -1.221333
| 24> N       3.128558   -2.474040   -1.838561
| 25> N       4.411186   -2.828067   -1.533905
| 26> C       4.876339   -1.906484   -0.750936
| 27> C       6.221930   -1.824926   -0.142073
| 28> O       3.966700   -0.946661   -0.512128
| 29> N      -0.388652   -0.185876    1.203200
| 30> C      -1.405490   -0.516681    2.193345
| 31> O      -1.024337   -1.138255    3.225381
| 32> C      -2.644098   -0.055399    1.875563
| 33> O      -3.736680   -0.262693    2.757011
| 34> H      -2.221556   -2.741069   -2.120433
| 35> H      -3.774512   -1.929855   -2.471990
| 36> H      -3.623518   -2.964371   -1.032526
| 37> H      -4.933343    1.366338    1.189854
| 38> H      -4.205018    2.291516   -0.140461
| 39> H      -3.624524    2.519547    1.518275
| 40> H       1.341002    2.123323    1.637771
| 41> H       0.283701    3.296114    0.833299
| 42> H       1.952340    3.081805    0.278595
| 43> H       1.141780    2.587115   -2.078017
| 44> H      -0.524531    2.845772   -1.519689
| 45> H      -0.094350    1.339699   -2.343319
| 46> H       2.575447    0.746049   -0.006060
| 47> H       6.720602   -0.911076   -0.463873
| 48> H       6.813078   -2.687095   -0.440464
| 49> H       6.138322   -1.796324    0.944063
| 50> H       0.556887   -0.315429    1.525417
| 51> H      -3.364761   -0.631783    3.570012
| 52> **                         ****END OF INPUT****

CARTESIAN COORDINATES (ANGSTROEM)
---------------------------------
  C     -3.094377   -2.259677   -1.681191
  O     -2.624271   -1.144040   -0.931284
  C     -3.556831   -0.403896   -0.309911
  O     -4.744254   -0.663001   -0.391205
  C     -2.964220    0.681073    0.600306
  C     -4.005773    1.789558    0.805989
  N     -1.772548    1.267946   -0.010003
  C     -0.621908    0.813007    0.314862
  C      0.603438    1.487338   -0.295851
  C      1.079800    2.568949    0.678971
  C      0.262589    2.104953   -1.654999
  N      1.696640    0.519855   -0.436779
  C      1.629583   -0.569042   -1.226220
  O      0.658087   -0.917011   -1.878905
  C      2.891545   -1.357207   -1.221333
  N      3.128558   -2.474040   -1.838561
  N      4.411186   -2.828067   -1.533905
  C      4.876339   -1.906484   -0.750936
  C      6.221930   -1.824926   -0.142073
  O      3.966700   -0.946661   -0.512128
  N     -0.388652   -0.185876    1.203200
  C     -1.405490   -0.516681    2.193345
  O     -1.024337   -1.138255    3.225381
  C     -2.644098   -0.055399    1.875563
  O     -3.736680   -0.262693    2.757011
  H     -2.221556   -2.741069   -2.120433
  H     -3.774512   -1.929855   -2.471990
  H     -3.623518   -2.964371   -1.032526
  H     -4.933343    1.366338    1.189854
  H     -4.205018    2.291516   -0.140461
  H     -3.624524    2.519547    1.518275
  H      1.341002    2.123323    1.637771
  H      0.283701    3.296114    0.833299
  H      1.952340    3.081805    0.278595
  H      1.141780    2.587115   -2.078017
  H     -0.524531    2.845772   -1.519689
  H     -0.094350    1.339699   -2.343319
  H      2.575447    0.746049   -0.006060
  H      6.720602   -0.911076   -0.463873
  H      6.813078   -2.687095   -0.440464
  H      6.138322   -1.796324    0.944063
  H      0.556887   -0.315429    1.525417
  H     -3.364761   -0.631783    3.570012

 Total Charge           Charge          ....   -1
 Multiplicity           Mult            ....    1
 Number of Electrons    NEL             ....  186
 Basis Dimension        Dim             ....  620

ORBITAL ENERGIES
----------------

  NO   OCC          E(Eh)            E(eV)
   0   2.0000     -19.062994      -518.7304
   1   2.0000     -18.975346      -516.3454
   2   2.0000     -18.932449      -515.1781
   3   2.0000     -18.927747      -515.0502
   4   2.0000     -18.912924      -514.6468
   5   2.0000     -18.858184      -513.1573
   6   2.0000     -14.201941      -386.4544
   7   2.0000     -14.195065      -386.2674
   8   2.0000     -14.195034      -386.2665
   9   2.0000     -14.157248      -385.2383
  10   2.0000     -14.113861      -384.0577
  11   2.0000     -10.150510      -276.2094
  12   2.0000     -10.144838      -276.0551
  13   2.0000     -10.139771      -275.9172
  14   2.0000     -10.126849      -275.5656
  15   2.0000     -10.087279      -274.4888
  16   2.0000     -10.083092      -274.3749
  17   2.0000     -10.063897      -273.8526
  18   2.0000     -10.062825      -273.8234
  19   2.0000     -10.062776      -273.8220
  20   2.0000     -10.043728      -273.3037
  21   2.0000     -10.020645      -272.6756
  22   2.0000     -10.018187      -272.6087
  23   2.0000     -10.008461      -272.3441
  24   2.0000     -10.000152      -272.1180
  25   2.0000      -1.152032       -31.3484
  26   2.0000      -1.048124       -28.5209
  27   2.0000      -1.015538       -27.6342
  28   2.0000      -0.972249       -26.4562
  29   2.0000      -0.966440       -26.2982
  30   2.0000      -0.955665       -26.0050
  31   2.0000      -0.936366       -25.4798
  32   2.0000      -0.911885       -24.8136
  33   2.0000      -0.890509       -24.2320
  34   2.0000      -0.828133       -22.5346
  35   2.0000      -0.819257       -22.2931
  36   2.0000      -0.765011       -20.8170
  37   2.0000      -0.720768       -19.6131
  38   2.0000      -0.710785       -19.3414
  39   2.0000      -0.674266       -18.3477
  40   2.0000      -0.661428       -17.9984
  41   2.0000      -0.654811       -17.8183
  42   2.0000      -0.648301       -17.6412
  43   2.0000      -0.600357       -16.3365
  44   2.0000      -0.594754       -16.1841
  45   2.0000      -0.580741       -15.8028
  46   2.0000      -0.571965       -15.5639
  47   2.0000      -0.533883       -14.5277
  48   2.0000      -0.518788       -14.1169
  49   2.0000      -0.513457       -13.9719
  50   2.0000      -0.497438       -13.5360
  51   2.0000      -0.491756       -13.3814
  52   2.0000      -0.476271       -12.9600
  53   2.0000      -0.464982       -12.6528
  54   2.0000      -0.456346       -12.4178
  55   2.0000      -0.438830       -11.9412
  56   2.0000      -0.429373       -11.6838
  57   2.0000      -0.421916       -11.4809
  58   2.0000      -0.413931       -11.2636
  59   2.0000      -0.407083       -11.0773
  60   2.0000      -0.404093       -10.9959
  61   2.0000      -0.401366       -10.9217
  62   2.0000      -0.397124       -10.8063
  63   2.0000      -0.384680       -10.4677
  64   2.0000      -0.382560       -10.4100
  65   2.0000      -0.379595       -10.3293
  66   2.0000      -0.373751       -10.1703
  67   2.0000      -0.362144        -9.8544
  68   2.0000      -0.352830        -9.6010
  69   2.0000      -0.347519        -9.4565
  70   2.0000      -0.343661        -9.3515
  71   2.0000      -0.341301        -9.2873
  72   2.0000      -0.338522        -9.2116
  73   2.0000      -0.334636        -9.1059
  74   2.0000      -0.326298        -8.8790
  75   2.0000      -0.323444        -8.8014
  76   2.0000      -0.316956        -8.6248
  77   2.0000      -0.312272        -8.4974
  78   2.0000      -0.310848        -8.4586
  79   2.0000      -0.302653        -8.2356
  80   2.0000      -0.299959        -8.1623
  81   2.0000      -0.285625        -7.7723
  82   2.0000      -0.265442        -7.2230
  83   2.0000      -0.261881        -7.1262
  84   2.0000      -0.259068        -7.0496
  85   2.0000      -0.252816        -6.8795
  86   2.0000      -0.246879        -6.7179
  87   2.0000      -0.237436        -6.4610
  88   2.0000      -0.226287        -6.1576
  89   2.0000      -0.213793        -5.8176
  90   2.0000      -0.193665        -5.2699
  91   2.0000      -0.180101        -4.9008
  92   2.0000      -0.105286        -2.8650
  93   0.0000      -0.082207        -2.2370
  94   0.0000      -0.017856        -0.4859
  95   0.0000      -0.009321        -0.2536
  96   0.0000       0.024008         0.6533
  97   0.0000       0.055895         1.5210

MULLIKEN ATOMIC CHARGES
-----------------------
   0 C :   -0.339077
   1 O :   -0.129650
   2 C :    0.190879
   3 O :   -0.422542
   4 C :    0.207707
   5 C :   -0.617794
   6 N :   -0.323163
   7 C :    0.242694
   8 C :    0.072924
   9 C :   -0.595686
  10 C :   -0.644470
  11 N :   -0.125131
  12 C :   -0.146244
  13 O :   -0.428436
  14 C :    0.444471
  15 N :   -0.181262
  16 N :   -0.281577
  17 C :    0.394381
  18 C :   -0.635136
  19 O :   -0.057892
  20 N :   -0.143473
  21 C :   -0.180967
  22 O :   -0.504120
  23 C :   -0.030299
  24 O :   -0.436514
  25 H :    0.169432
  26 H :    0.166026
  27 H :    0.166446
  28 H :    0.175723
  29 H :    0.166362
  30 H :    0.167186
  31 H :    0.188800
  32 H :    0.194716
  33 H :    0.185823
  34 H :    0.179607
  35 H :    0.182946
  36 H :    0.196729
  37 H :    0.317425
  38 H :    0.200447
  39 H :    0.204479
  40 H :    0.200411
  41 H :    0.297537
  42 H :    0.310281
Sum of atomic charges:   -1.0000000

LOEWDIN ATOMIC CHARGES
----------------------
   0 C :   -0.051966
   1 O :   -0.585877
   2 C :    0.386030
   3 O :   -0.463900
   4 C :    0.122227
   5 C :   -0.362123
   6 N :   -0.640995
   7 C :    0.326038
   8 C :    0.107746
   9 C :   -0.344997
  10 C :   -0.354580
  11 N :   -0.576787
  12 C :    0.376133
  13 O :   -0.436362
  14 C :    0.415449
  15 N :   -0.337995
  16 N :   -0.363201
  17 C :    0.376818
  18 C :   -0.317912
  19 O :   -0.393918
  20 N :   -0.560110
  21 C :    0.277005
  22 O :   -0.644199
  23 C :    0.110543
  24 O :   -0.567918
  25 H :    0.180324
  26 H :    0.175252
  27 H :    0.174899
  28 H :    0.174153
  29 H :    0.162424
  30 H :    0.162011
  31 H :    0.172196
  32 H :    0.176151
  33 H :    0.170475
  34 H :    0.163154
  35 H :    0.174942
  36 H :    0.180787
  37 H :    0.297772
  38 H :    0.191387
  39 H :    0.190634
  40 H :    0.191351
  41 H :    0.287907
  42 H :    0.279030

  Mayer bond orders larger than 0.100000
B(  0-C ,  1-O ) :   0.8246 B(  0-C , 25-H ) :   0.9682 B(  0-C , 26-H ) :   0.9605
B(  0-C , 27-H ) :   0.9613 B(  1-O ,  2-C ) :   1.1013 B(  2-C ,  3-O ) :   1.8612
B(  2-C ,  4-C ) :   0.9149 B(  4-C ,  5-C ) :   0.8738 B(  4-C ,  6-N ) :   0.8188
B(  4-C , 23-C ) :   0.9171 B(  5-C , 28-H ) :   0.9857 B(  5-C , 29-H ) :   0.9802
B(  5-C , 30-H ) :   0.9868 B(  6-N ,  7-C ) :   1.8614 B(  6-N , 20-N ) :   0.1146
B(  7-C ,  8-C ) :   0.7759 B(  7-C , 20-N ) :   1.1334 B(  8-C ,  9-C ) :   0.9263
B(  8-C , 10-C ) :   0.8668 B(  8-C , 11-N ) :   0.8448 B(  9-C , 31-H ) :   0.9645
B(  9-C , 32-H ) :   0.9679 B(  9-C , 33-H ) :   0.9679 B( 10-C , 34-H ) :   0.9774
B( 10-C , 35-H ) :   0.9612 B( 10-C , 36-H ) :   0.9748 B( 11-N , 12-C ) :   1.1607
B( 11-N , 37-H ) :   0.8880 B( 12-C , 13-O ) :   1.8882 B( 12-C , 14-C ) :   0.8047
B( 14-C , 15-N ) :   1.7221 B( 14-C , 17-C ) :   0.1124 B( 14-C , 19-O ) :   1.0762
B( 15-N , 16-N ) :   1.2707 B( 16-N , 17-C ) :   1.6349 B( 17-C , 18-C ) :   0.8280
B( 17-C , 19-O ) :   1.0660 B( 18-C , 38-H ) :   0.9421 B( 18-C , 39-H ) :   0.9904
B( 18-C , 40-H ) :   0.9430 B( 20-N , 21-C ) :   0.9099 B( 20-N , 41-H ) :   0.8714
B( 21-C , 22-O ) :   2.0961 B( 21-C , 23-C ) :   1.2774 B( 22-O , 23-C ) :  -0.1206
B( 23-C , 24-O ) :   0.8996 B( 24-O , 42-H ) :   0.8583

Dispersion correction           -0.020115464
FINAL SINGLE POINT ENERGY     -1269.352428628502

DIPOLE MOMENT
-------------
                                X             Y             Z
Electronic contribution:      4.67872     -11.18724      -0.80336
Nuclear contribution   :      2.39073      13.31427      -0.48861
                        -----------------------------------------
Total Dipole Moment    :      7.06945       2.12703      -1.29197
                        -----------------------------------------
Magnitude (a.u.)       :      7.49470
Magnitude (Debye)      :     19.05002

Rotational constants in cm-1:     0.013617     0.004129     0.003994
Rotational constants in MHz :   408.226235   123.769960   119.722306

                             ****ORCA TERMINATED NORMALLY****
TOTAL RUN TIME: 0 days 0 hours 2 minutes 26 seconds 415 msec
