   * xtb version 6.5.1 (579679a) compiled by 'ehlert@majestix' on 2022-07-11
          program call               : /lustre/hpc/kemi/ree/PhD/git/ReactivityQM/dep/xtb-6.5.1/bin/xtb --gfn 1 /lustre/hpc/kemi/ree/PhD/git/ReactivityQM/calculations/R02/reac01prodE04/conf15/R02_reac01prodE04_conf15_gfn1.xyz --opt --vfukui --chrg -1 --uhf 0 --alpb DMSO

   ID    Z sym.   atoms
    1    6 C      1, 3, 5, 6, 8-11, 13, 15, 18, 19, 22, 24
    2    8 O      2, 4, 14, 20, 23, 25
    3    7 N      7, 12, 16, 17, 21
    4    1 H      26-43

      * Solvation model:               ALPB
        Solvent                        DMSO
        Solvent mass                       7.8130E+01 g/mol
          :  Hamiltonian                  GFN1-xTB          :
 * total energy  :   -83.8466443 Eh     change       -0.1021476E-09 Eh
 * total energy  :   -83.8621319 Eh     change       -0.1548755E-01 Eh
 * total energy  :   -83.8685935 Eh     change       -0.6461603E-02 Eh
 * total energy  :   -83.8701034 Eh     change       -0.1509910E-02 Eh
 * total energy  :   -83.8713493 Eh     change       -0.1245953E-02 Eh
 * total energy  :   -83.8720341 Eh     change       -0.6848022E-03 Eh
 * total energy  :   -83.8725760 Eh     change       -0.5418375E-03 Eh
 * total energy  :   -83.8730143 Eh     change       -0.4383025E-03 Eh
 * total energy  :   -83.8733124 Eh     change       -0.2981668E-03 Eh
 * total energy  :   -83.8735147 Eh     change       -0.2023154E-03 Eh
 * total energy  :   -83.8769579 Eh     change       -0.1073831E-04 Eh
 * total energy  :   -83.8769679 Eh     change       -0.9994826E-05 Eh
 * total energy  :   -83.8769767 Eh     change       -0.8761310E-05 Eh
 * total energy  :   -83.8769876 Eh     change       -0.1091364E-04 Eh
 * total energy  :   -83.8769986 Eh     change       -0.1097909E-04 Eh
 * total energy  :   -83.8770057 Eh     change       -0.7114088E-05 Eh
 * total energy  :   -83.8770131 Eh     change       -0.7418288E-05 Eh
 * total energy  :   -83.8770186 Eh     change       -0.5505114E-05 Eh
 * total energy  :   -83.8770235 Eh     change       -0.4849418E-05 Eh
   *** GEOMETRY OPTIMIZATION CONVERGED AFTER 93 ITERATIONS ***

 final structure:
================
43
 xtb: 6.5.1 (579679a)
C           -3.09437707482672       -2.25967699981305       -1.68119062540708
O           -2.62427108959632       -1.14403984940802       -0.93128443805385
C           -3.55683059842809       -0.40389588301533       -0.30991093797517
O           -4.74425424400935       -0.66300061274022       -0.39120480221122
C           -2.96422035461928        0.68107312422336        0.60030643897165
C           -4.00577338366180        1.78955775727011        0.80598897530269
N           -1.77254750925737        1.26794606676146       -0.01000289844602
C           -0.62190751071649        0.81300675055098        0.31486184657808
C            0.60343773430283        1.48733780377697       -0.29585107181716
C            1.07979950774984        2.56894867164512        0.67897132851782
C            0.26258889183964        2.10495292073466       -1.65499867837261
N            1.69663983712296        0.51985540976210       -0.43677940758439
C            1.62958307886380       -0.56904232813440       -1.22621976605592
O            0.65808701477853       -0.91701063547704       -1.87890529689343
C            2.89154476371438       -1.35720708677992       -1.22133282843122
N            3.12855760958811       -2.47403960523450       -1.83856109139849
N            4.41118616063419       -2.82806721707041       -1.53390524236081
C            4.87633851270040       -1.90648370676938       -0.75093552266393
C            6.22192972248020       -1.82492639784045       -0.14207336374685
O            3.96670034235582       -0.94666134612406       -0.51212770573545
N           -0.38865217060722       -0.18587609429721        1.20320006757564
C           -1.40548955512203       -0.51668068395503        2.19334504370313
O           -1.02433727876898       -1.13825486076452        3.22538061056020
C           -2.64409756496388       -0.05539916102606        1.87556345212405
O           -3.73667954283319       -0.26269275762214        2.75701131748951
H           -2.22155589011346       -2.74106907547100       -2.12043319219273
H           -3.77451191624960       -1.92985542083040       -2.47198965186745
H           -3.62351829398203       -2.96437142969050       -1.03252574822337
H           -4.93334348979638        1.36633750569957        1.18985370440506
H           -4.20501824702804        2.29151620308865       -0.14046140637104
H           -3.62452379880026        2.51954728867668        1.51827489084143
H            1.34100177403753        2.12332288803582        1.63777057924731
H            0.28370088977685        3.29611383660737        0.83329942641752
H            1.95233983876398        3.08180547069160        0.27859478548083
H            1.14177971829436        2.58711495014633       -2.07801708926254
H           -0.52453111727353        2.84577233321976       -1.51968948276766
H           -0.09435042796589        1.33969860123010       -2.34331889841144
H            2.57544698696257        0.74604885329034       -0.00605994316284
H            6.72060229427158       -0.91107559939024       -0.46387323585570
H            6.81307775687024       -2.68709534578335       -0.44046413714466
H            6.13832207162370       -1.79632373173417        0.94406301177448
H            0.55688703616597       -0.31542880109669        1.52541721471585
H           -3.36476148427255       -0.63178280534063        3.57001176870032

          :  Hamiltonian                  GFN1-xTB          :
         :: total energy             -83.877023473373 Eh    ::
         :: gradient norm              0.000344405045 Eh/a0 ::
         :: HOMO-LUMO gap              0.248248853343 eV    ::
         :: SCC energy               -84.642603043795 Eh    ::
         :: -> Gsolv                  -0.134548631071 Eh    ::
         :: repulsion energy           0.793318014013 Eh    ::

    * Orbital Energies and Occupations

         #    Occupation            Energy/Eh            Energy/eV
      -------------------------------------------------------------
         1        2.0000           -0.8576934             -23.3390
       ...           ...                  ...                  ...
        56        2.0000           -0.4728481             -12.8669
        57        2.0000           -0.4666541             -12.6983
        58        2.0000           -0.4658876             -12.6774
        59        2.0000           -0.4576910             -12.4544
        60        2.0000           -0.4526142             -12.3163
        61        2.0000           -0.4510050             -12.2725
        62        2.0000           -0.4431051             -12.0575
        63        2.0000           -0.4399682             -11.9721
        64        2.0000           -0.4321406             -11.7591
        65        2.0000           -0.3957351             -10.7685
        66        2.0000           -0.3877251             -10.5505
        67        2.0000           -0.3753688             -10.2143
        68        1.9837           -0.3093315              -8.4173 (HOMO)
        69        0.0163           -0.3002086              -8.1691 (LUMO)
        70                         -0.2501650              -6.8073
        71                         -0.2359045              -6.4193
        72                         -0.2171915              -5.9101
        73                         -0.1880660              -5.1175
        74                         -0.1386378              -3.7725
        75                         -0.1294793              -3.5233
        76                         -0.1283790              -3.4934
        77                         -0.1196746              -3.2565
        78                         -0.1097201              -2.9856
        79                         -0.0970527              -2.6409
       ...                                ...                  ...
       136                          0.7375507              20.0698
      -------------------------------------------------------------
                  HL-Gap            0.0091230 Eh            0.2482 eV

Wiberg/Mayer (AO) data.
largest (>0.10) Wiberg bond orders for each atom

     #   Z sym  total        # sym  WBO       # sym  WBO       # sym  WBO
 ---------------------------------------------------------------------------
     1   6 C    3.892 --    26 H    0.987    27 H    0.981    28 H    0.981
                             2 O    0.914
     2   8 O    2.183 --     3 C    1.088     1 C    0.914     4 O    0.119
     3   6 C    3.809 --     4 O    1.632     2 O    1.088     5 C    0.920
     4   8 O    1.897 --     3 C    1.632     2 O    0.119
     5   6 C    3.965 --     6 C    0.988     7 N    0.969    24 C    0.957
                             3 C    0.920
     6   6 C    3.996 --    30 H    0.988     5 C    0.988    31 H    0.987
                            29 H    0.985
     7   7 N    2.973 --     8 C    1.675     5 C    0.969    21 N    0.163
     8   6 C    3.951 --     7 N    1.675    21 N    1.193     9 C    0.960
     9   6 C    3.929 --    11 C    0.992    10 C    0.989     8 C    0.960
                            12 N    0.918
    10   6 C    3.993 --     9 C    0.989    32 H    0.984    33 H    0.984
                            34 H    0.984
    11   6 C    3.992 --     9 C    0.992    35 H    0.987    36 H    0.983
                            37 H    0.981
    12   7 N    3.357 --    13 C    1.266     9 C    0.918    38 H    0.898
                            14 O    0.179
    13   6 C    3.915 --    14 O    1.578    12 N    1.266    15 C    0.989
    14   8 O    1.883 --    13 C    1.578    12 N    0.179
    15   6 C    3.862 --    16 N    1.620    20 O    1.045    13 C    0.989
    16   7 N    2.987 --    15 C    1.620    17 N    1.192
    17   7 N    2.980 --    18 C    1.617    16 N    1.192
    18   6 C    3.868 --    17 N    1.617    20 O    1.071    19 C    1.031
    19   6 C    3.987 --    18 C    1.031    40 H    0.983    41 H    0.964
                            39 H    0.964
    20   8 O    2.311 --    18 C    1.071    15 C    1.045
    21   7 N    3.307 --     8 C    1.193    42 H    0.913    22 C    0.904
                             7 N    0.163
    22   6 C    3.914 --    24 C    1.517    23 O    1.362    21 N    0.904
    23   8 O    1.702 --    22 C    1.362    24 C    0.170
    24   6 C    3.780 --    22 C    1.517     5 C    0.957    25 O    0.943
                            23 O    0.170
    25   8 O    1.912 --    24 C    0.943    43 H    0.858
    26   1 H    1.015 --     1 C    0.987
    27   1 H    1.012 --     1 C    0.981
    28   1 H    1.012 --     1 C    0.981
    29   1 H    1.017 --     6 C    0.985
    30   1 H    1.011 --     6 C    0.988
    31   1 H    1.012 --     6 C    0.987
    32   1 H    1.001 --    10 C    0.984
    33   1 H    1.005 --    10 C    0.984
    34   1 H    1.000 --    10 C    0.984
    35   1 H    1.003 --    11 C    0.987
    36   1 H    1.019 --    11 C    0.983
    37   1 H    1.016 --    11 C    0.981
    38   1 H    0.941 --    12 N    0.898
    39   1 H    0.997 --    19 C    0.964
    40   1 H    0.999 --    19 C    0.983
    41   1 H    0.997 --    19 C    0.964
    42   1 H    0.965 --    21 N    0.913
    43   1 H    0.891 --    25 O    0.858
 ---------------------------------------------------------------------------

           -------------------------------------------------
          | TOTAL ENERGY              -83.877023473373 Eh   |
          | GRADIENT NORM               0.000344405045 Eh/α |
          | HOMO-LUMO GAP               0.248248853343 eV   |
           -------------------------------------------------

 * finished run on 2023/06/20 at 14:57:18.564
