                         Program Version 5.0.1 -  RELEASE  -
|  1> # ORCA input file
|  2> ! SP r2SCAN-3c CPCM
|  3>
|  4> %maxcore 1875.0
|  5> %pal nprocs 4 end
|  6> %cpcm smd true SMDsolvent "DMSO" end
|  7>
|  8> *xyz -2 1
|  9> C      -2.378071    3.793622    0.620413
| 10> O      -2.039870    2.690679   -0.195439
| 11> C      -2.042899    1.461463    0.438637
| 12> O      -2.293800    1.417571    1.651750
| 13> C      -1.772094    0.343666   -0.403196
| 14> C      -1.524629    0.406474   -1.788889
| 15> O      -1.462741    1.446865   -2.486997
| 16> C      -1.262184   -0.928474   -2.468985
| 17> O      -1.344197   -1.098671   -3.702684
| 18> N      -0.857428   -1.933839   -1.665101
| 19> C      -1.049341   -2.018885   -0.253069
| 20> C       0.231228   -2.342132    0.511637
| 21> C      -0.045652   -2.364864    2.014261
| 22> C       0.769021   -3.715371    0.073905
| 23> N       1.276791   -1.353969    0.153718
| 24> C       1.769644   -0.324990    0.886678
| 25> O       1.784367   -0.254275    2.128828
| 26> C       2.353729    0.698574    0.020661
| 27> N       2.280811    0.743827   -1.292657
| 28> N       3.013085    1.831409   -1.689763
| 29> C       3.486126    2.376735   -0.617884
| 30> C       4.349939    3.578484   -0.528007
| 31> O       3.115156    1.724162    0.503330
| 32> N      -1.821454   -0.932515    0.292644
| 33> C      -3.212781   -1.361408    0.540261
| 34> H      -3.393279    3.692893    1.022319
| 35> H      -2.325899    4.687720   -0.002278
| 36> H      -1.683785    3.898178    1.462910
| 37> H      -0.660272   -2.803113   -2.135029
| 38> H       0.864348   -2.562362    2.579493
| 39> H      -0.474720   -1.418076    2.345152
| 40> H      -0.762389   -3.160328    2.220214
| 41> H       1.051563   -3.700480   -0.978206
| 42> H       1.646719   -3.987506    0.660418
| 43> H      -0.001614   -4.471234    0.217997
| 44> H       1.390478   -1.267479   -0.851779
| 45> H       5.350019    3.300945   -0.194275
| 46> H       4.420925    4.049311   -1.505439
| 47> H       3.940170    4.287389    0.191013
| 48> H      -3.780857   -1.471080   -0.394304
| 49> H      -3.188416   -2.325938    1.048663
| 50> H      -3.715746   -0.632978    1.180059
| 51> **                         ****END OF INPUT****

CARTESIAN COORDINATES (ANGSTROEM)
---------------------------------
  C     -2.378071    3.793622    0.620413
  O     -2.039870    2.690679   -0.195439
  C     -2.042899    1.461463    0.438637
  O     -2.293800    1.417571    1.651750
  C     -1.772094    0.343666   -0.403196
  C     -1.524629    0.406474   -1.788889
  O     -1.462741    1.446865   -2.486997
  C     -1.262184   -0.928474   -2.468985
  O     -1.344197   -1.098671   -3.702684
  N     -0.857428   -1.933839   -1.665101
  C     -1.049341   -2.018885   -0.253069
  C      0.231228   -2.342132    0.511637
  C     -0.045652   -2.364864    2.014261
  C      0.769021   -3.715371    0.073905
  N      1.276791   -1.353969    0.153718
  C      1.769644   -0.324990    0.886678
  O      1.784367   -0.254275    2.128828
  C      2.353729    0.698574    0.020661
  N      2.280811    0.743827   -1.292657
  N      3.013085    1.831409   -1.689763
  C      3.486126    2.376735   -0.617884
  C      4.349939    3.578484   -0.528007
  O      3.115156    1.724162    0.503330
  N     -1.821454   -0.932515    0.292644
  C     -3.212781   -1.361408    0.540261
  H     -3.393279    3.692893    1.022319
  H     -2.325899    4.687720   -0.002278
  H     -1.683785    3.898178    1.462910
  H     -0.660272   -2.803113   -2.135029
  H      0.864348   -2.562362    2.579493
  H     -0.474720   -1.418076    2.345152
  H     -0.762389   -3.160328    2.220214
  H      1.051563   -3.700480   -0.978206
  H      1.646719   -3.987506    0.660418
  H     -0.001614   -4.471234    0.217997
  H      1.390478   -1.267479   -0.851779
  H      5.350019    3.300945   -0.194275
  H      4.420925    4.049311   -1.505439
  H      3.940170    4.287389    0.191013
  H     -3.780857   -1.471080   -0.394304
  H     -3.188416   -2.325938    1.048663
  H     -3.715746   -0.632978    1.180059

 Total Charge           Charge          ....   -2
 Multiplicity           Mult            ....    1
 Number of Electrons    NEL             ....  186
 Basis Dimension        Dim             ....  615

ORBITAL ENERGIES
----------------

  NO   OCC          E(Eh)            E(eV)
   0   2.0000     -19.036970      -518.0223
   1   2.0000     -18.945945      -515.5454
   2   2.0000     -18.887735      -513.9614
   3   2.0000     -18.879963      -513.7499
   4   2.0000     -18.872162      -513.5376
   5   2.0000     -18.856245      -513.1045
   6   2.0000     -14.178329      -385.8119
   7   2.0000     -14.176704      -385.7677
   8   2.0000     -14.161587      -385.3564
   9   2.0000     -14.155638      -385.1945
  10   2.0000     -14.123630      -384.3235
  11   2.0000     -10.123266      -275.4681
  12   2.0000     -10.113874      -275.2125
  13   2.0000     -10.110331      -275.1161
  14   2.0000     -10.099106      -274.8107
  15   2.0000     -10.076119      -274.1851
  16   2.0000     -10.053503      -273.5697
  17   2.0000     -10.050955      -273.5004
  18   2.0000     -10.048185      -273.4250
  19   2.0000     -10.035383      -273.0767
  20   2.0000     -10.015471      -272.5348
  21   2.0000     -10.011508      -272.4270
  22   2.0000     -10.000759      -272.1345
  23   2.0000     -10.000117      -272.1170
  24   2.0000      -9.992218      -271.9021
  25   2.0000      -1.120565       -30.4921
  26   2.0000      -1.012253       -27.5448
  27   2.0000      -0.968313       -26.3491
  28   2.0000      -0.955916       -26.0118
  29   2.0000      -0.947491       -25.7825
  30   2.0000      -0.920000       -25.0345
  31   2.0000      -0.910050       -24.7637
  32   2.0000      -0.884752       -24.0753
  33   2.0000      -0.860659       -23.4197
  34   2.0000      -0.817685       -22.2503
  35   2.0000      -0.804991       -21.9049
  36   2.0000      -0.734699       -19.9922
  37   2.0000      -0.694045       -18.8859
  38   2.0000      -0.685582       -18.6556
  39   2.0000      -0.643045       -17.4982
  40   2.0000      -0.635280       -17.2868
  41   2.0000      -0.635070       -17.2811
  42   2.0000      -0.624820       -17.0022
  43   2.0000      -0.586151       -15.9500
  44   2.0000      -0.581854       -15.8331
  45   2.0000      -0.559204       -15.2167
  46   2.0000      -0.540589       -14.7102
  47   2.0000      -0.501144       -13.6368
  48   2.0000      -0.496775       -13.5179
  49   2.0000      -0.492810       -13.4100
  50   2.0000      -0.466533       -12.6950
  51   2.0000      -0.455110       -12.3842
  52   2.0000      -0.444754       -12.1024
  53   2.0000      -0.439884       -11.9699
  54   2.0000      -0.431540       -11.7428
  55   2.0000      -0.410386       -11.1672
  56   2.0000      -0.408854       -11.1255
  57   2.0000      -0.404848       -11.0165
  58   2.0000      -0.389574       -10.6009
  59   2.0000      -0.387776       -10.5519
  60   2.0000      -0.382365       -10.4047
  61   2.0000      -0.374100       -10.1798
  62   2.0000      -0.371025       -10.0961
  63   2.0000      -0.369062       -10.0427
  64   2.0000      -0.363686        -9.8964
  65   2.0000      -0.359085        -9.7712
  66   2.0000      -0.356357        -9.6970
  67   2.0000      -0.346394        -9.4258
  68   2.0000      -0.342784        -9.3276
  69   2.0000      -0.338546        -9.2123
  70   2.0000      -0.329578        -8.9683
  71   2.0000      -0.326826        -8.8934
  72   2.0000      -0.322231        -8.7683
  73   2.0000      -0.321098        -8.7375
  74   2.0000      -0.319212        -8.6862
  75   2.0000      -0.307406        -8.3649
  76   2.0000      -0.297955        -8.1078
  77   2.0000      -0.295290        -8.0352
  78   2.0000      -0.289608        -7.8806
  79   2.0000      -0.281867        -7.6700
  80   2.0000      -0.274911        -7.4807
  81   2.0000      -0.249306        -6.7839
  82   2.0000      -0.239379        -6.5138
  83   2.0000      -0.232760        -6.3337
  84   2.0000      -0.227358        -6.1867
  85   2.0000      -0.210195        -5.7197
  86   2.0000      -0.202244        -5.5033
  87   2.0000      -0.199862        -5.4385
  88   2.0000      -0.191958        -5.2235
  89   2.0000      -0.179513        -4.8848
  90   2.0000      -0.151827        -4.1314
  91   2.0000      -0.128859        -3.5064
  92   2.0000      -0.090522        -2.4632
  93   0.0000      -0.061507        -1.6737
  94   0.0000      -0.024307        -0.6614
  95   0.0000      -0.001375        -0.0374
  96   0.0000       0.052883         1.4390
  97   0.0000       0.059412         1.6167

MULLIKEN ATOMIC CHARGES
-----------------------
   0 C :   -0.344510
   1 O :   -0.156477
   2 C :    0.137561
   3 O :   -0.467013
   4 C :   -0.223117
   5 C :   -0.086791
   6 O :   -0.377717
   7 C :   -0.097698
   8 O :   -0.421595
   9 N :    0.039200
  10 C :   -0.546874
  11 C :    0.214556
  12 C :   -0.623063
  13 C :   -0.584940
  14 N :   -0.033534
  15 C :   -0.260914
  16 O :   -0.453044
  17 C :    0.309294
  18 N :   -0.144833
  19 N :   -0.349890
  20 C :    0.389976
  21 C :   -0.649291
  22 O :   -0.045666
  23 N :    0.162198
  24 C :   -0.462730
  25 H :    0.153125
  26 H :    0.154374
  27 H :    0.154550
  28 H :    0.263753
  29 H :    0.169697
  30 H :    0.180373
  31 H :    0.156828
  32 H :    0.162206
  33 H :    0.165278
  34 H :    0.173655
  35 H :    0.293114
  36 H :    0.194944
  37 H :    0.198270
  38 H :    0.190055
  39 H :    0.149004
  40 H :    0.154647
  41 H :    0.163040
Sum of atomic charges:   -2.0000000

LOEWDIN ATOMIC CHARGES
----------------------
   0 C :   -0.068388
   1 O :   -0.630861
   2 C :    0.369995
   3 O :   -0.535817
   4 C :    0.072975
   5 C :    0.218225
   6 O :   -0.597066
   7 C :    0.315778
   8 O :   -0.549361
   9 N :   -0.590599
  10 C :    0.136794
  11 C :    0.083949
  12 C :   -0.365627
  13 C :   -0.380844
  14 N :   -0.611381
  15 C :    0.337112
  16 O :   -0.536773
  17 C :    0.403706
  18 N :   -0.404995
  19 N :   -0.396071
  20 C :    0.352908
  21 C :   -0.325744
  22 O :   -0.387714
  23 N :   -0.865430
  24 C :   -0.156332
  25 H :    0.166139
  26 H :    0.171140
  27 H :    0.166604
  28 H :    0.279240
  29 H :    0.163639
  30 H :    0.177944
  31 H :    0.156900
  32 H :    0.162487
  33 H :    0.158395
  34 H :    0.163006
  35 H :    0.297090
  36 H :    0.186021
  37 H :    0.186834
  38 H :    0.184458
  39 H :    0.151505
  40 H :    0.168848
  41 H :    0.171309

  Mayer bond orders larger than 0.100000
B(  0-C ,  1-O ) :   0.8579 B(  0-C , 25-H ) :   0.9672 B(  0-C , 26-H ) :   0.9718
B(  0-C , 27-H ) :   0.9669 B(  1-O ,  2-C ) :   1.0566 B(  2-C ,  3-O ) :   1.8273
B(  2-C ,  4-C ) :   1.2921 B(  4-C ,  5-C ) :   1.0338 B(  4-C ,  6-O ) :  -0.1002
B(  4-C , 23-N ) :   0.6517 B(  5-C ,  6-O ) :   1.9870 B(  5-C ,  7-C ) :   0.8911
B(  7-C ,  8-O ) :   2.0463 B(  7-C ,  9-N ) :   1.1119 B(  7-C , 10-C ) :   0.1080
B(  9-N , 10-C ) :   0.9366 B(  9-N , 28-H ) :   0.8829 B( 10-C , 11-C ) :   0.6613
B( 10-C , 23-N ) :   1.0055 B( 11-C , 12-C ) :   0.8405 B( 11-C , 13-C ) :   0.9366
B( 11-C , 14-N ) :   0.8500 B( 12-C , 29-H ) :   0.9760 B( 12-C , 30-H ) :   0.9815
B( 12-C , 31-H ) :   0.9676 B( 13-C , 32-H ) :   0.9750 B( 13-C , 33-H ) :   0.9712
B( 13-C , 34-H ) :   0.9880 B( 14-N , 15-C ) :   1.1032 B( 14-N , 35-H ) :   0.8797
B( 15-C , 16-O ) :   1.8946 B( 15-C , 17-C ) :   0.8687 B( 17-C , 18-N ) :   1.5935
B( 17-C , 22-O ) :   1.0847 B( 18-N , 19-N ) :   1.1983 B( 19-N , 20-C ) :   1.6563
B( 20-C , 21-C ) :   0.8236 B( 20-C , 22-O ) :   1.0594 B( 21-C , 36-H ) :   0.9420
B( 21-C , 37-H ) :   0.9930 B( 21-C , 38-H ) :   0.9547 B( 23-N , 24-C ) :   0.8611
B( 24-C , 39-H ) :   0.9731 B( 24-C , 40-H ) :   0.9725 B( 24-C , 41-H ) :   0.9638

Dispersion correction           -0.020841646
FINAL SINGLE POINT ENERGY     -1268.801186861647

DIPOLE MOMENT
-------------
                                X             Y             Z
Electronic contribution:      5.65806       7.02798      -8.51545
Nuclear contribution   :     -1.86476      -6.45032      10.82359
                        -----------------------------------------
Total Dipole Moment    :      3.79330       0.57766       2.30814
                        -----------------------------------------
Magnitude (a.u.)       :      4.47776
Magnitude (Debye)      :     11.38157

Rotational constants in cm-1:     0.008631     0.006595     0.005544
Rotational constants in MHz :   258.742979   197.723049   166.192565

                             ****ORCA TERMINATED NORMALLY****
TOTAL RUN TIME: 0 days 0 hours 2 minutes 56 seconds 675 msec
