   * xtb version 6.5.1 (579679a) compiled by 'ehlert@majestix' on 2022-07-11
          program call               : /lustre/hpc/kemi/ree/PhD/git/ReactivityQM/dep/xtb-6.5.1/bin/xtb --gfn 1 /lustre/hpc/kemi/ree/PhD/git/ReactivityQM/calculations/R02methylcation/reac01prodE05/conf02/R02methylcation_reac01prodE05_conf02_gfn1.xyz --opt --vfukui --chrg -2 --uhf 0 --alpb DMSO

   ID    Z sym.   atoms
    1    6 C      1, 3, 5, 6, 8, 11-14, 16, 18, 21, 22, 25
    2    8 O      2, 4, 7, 9, 17, 23
    3    7 N      10, 15, 19, 20, 24
    4    1 H      26-42

      * Solvation model:               ALPB
        Solvent                        DMSO
        Solvent mass                       7.8130E+01 g/mol
          :  Hamiltonian                  GFN1-xTB          :
 * total energy  :   -83.5584359 Eh     change       -0.1426912E-09 Eh
 * total energy  :   -83.5714082 Eh     change       -0.1297227E-01 Eh
 * total energy  :   -83.5766018 Eh     change       -0.5193640E-02 Eh
 * total energy  :   -83.5779307 Eh     change       -0.1328852E-02 Eh
 * total energy  :   -83.5787564 Eh     change       -0.8256934E-03 Eh
 * total energy  :   -83.5791031 Eh     change       -0.3467952E-03 Eh
 * total energy  :   -83.5793572 Eh     change       -0.2540401E-03 Eh
 * total energy  :   -83.5795766 Eh     change       -0.2194369E-03 Eh
 * total energy  :   -83.5797502 Eh     change       -0.1735731E-03 Eh
 * total energy  :   -83.5798956 Eh     change       -0.1454373E-03 Eh
 * total energy  :   -83.5923302 Eh     change       -0.2026373E-04 Eh
 * total energy  :   -83.5923461 Eh     change       -0.1594655E-04 Eh
 * total energy  :   -83.5923553 Eh     change       -0.9192047E-05 Eh
 * total energy  :   -83.5923660 Eh     change       -0.1068612E-04 Eh
 * total energy  :   -83.5923796 Eh     change       -0.1361049E-04 Eh
 * total energy  :   -83.5923929 Eh     change       -0.1329914E-04 Eh
 * total energy  :   -83.5923978 Eh     change       -0.4919571E-05 Eh
 * total energy  :   -83.5924063 Eh     change       -0.8457961E-05 Eh
 * total energy  :   -83.5924109 Eh     change       -0.4673790E-05 Eh
   *** GEOMETRY OPTIMIZATION CONVERGED AFTER 126 ITERATIONS ***

 final structure:
================
42
 xtb: 6.5.1 (579679a)
C           -2.37807085790295        3.79362172434052        0.62041253015276
O           -2.03987008660828        2.69067933396466       -0.19543886389126
C           -2.04289881627479        1.46146349569018        0.43863713309643
O           -2.29379975283190        1.41757056143728        1.65175034068959
C           -1.77209424566625        0.34366619959186       -0.40319575713487
C           -1.52462870648572        0.40647405963107       -1.78888850818808
O           -1.46274087859489        1.44686548345324       -2.48699652437635
C           -1.26218371656495       -0.92847362304604       -2.46898506950678
O           -1.34419733179106       -1.09867114294808       -3.70268396055035
N           -0.85742758968363       -1.93383926092939       -1.66510123247460
C           -1.04934050505886       -2.01888534748285       -0.25306936341019
C            0.23122833405151       -2.34213225648542        0.51163732949910
C           -0.04565202599623       -2.36486351906522        2.01426059382839
C            0.76902120020403       -3.71537056568370        0.07390452386296
N            1.27679148328518       -1.35396877636515        0.15371801493649
C            1.76964412532004       -0.32498965178768        0.88667842182914
O            1.78436675216667       -0.25427494561324        2.12882766230671
C            2.35372920794529        0.69857444769647        0.02066134982690
N            2.28081108608633        0.74382682720139       -1.29265652231421
N            3.01308520974928        1.83140896663943       -1.68976342180006
C            3.48612618436587        2.37673537712944       -0.61788407726034
C            4.34993877639623        3.57848422434217       -0.52800668983429
O            3.11515579557283        1.72416164127433        0.50332966225077
N           -1.82145352902404       -0.93251475374257        0.29264398236306
C           -3.21278104601411       -1.36140767217437        0.54026079850833
H           -3.39327927839011        3.69289280917878        1.02231904261586
H           -2.32589894724325        4.68772021593124       -0.00227764024089
H           -1.68378523375513        3.89817787314823        1.46290955534795
H           -0.66027158720272       -2.80311255645803       -2.13502859844839
H            0.86434811747450       -2.56236249093896        2.57949310846287
H           -0.47471964215660       -1.41807629952730        2.34515198656290
H           -0.76238916949384       -3.16032805970383        2.22021353150437
H            1.05156333396249       -3.70047985340553       -0.97820556642799
H            1.64671854293238       -3.98750578378949        0.66041800431693
H           -0.00161400170142       -4.47123386140210        0.21799657737851
H            1.39047778594403       -1.26747945426132       -0.85177913415872
H            5.35001903034490        3.30094453172544       -0.19427472134723
H            4.42092538527506        4.04931090649152       -1.50543929390161
H            3.94016967644110        4.28738878482331        0.19101303862337
H           -3.78085741338589       -1.47107984717860       -0.39430394276093
H           -3.18841641861973       -2.32593827544584        1.04866327766910
H           -3.71574624705232       -0.63297846625118        1.18005942238126

          :  Hamiltonian                  GFN1-xTB          :
         :: total energy             -83.592410939416 Eh    ::
         :: gradient norm              0.000699894594 Eh/a0 ::
         :: HOMO-LUMO gap              0.491382824859 eV    ::
         :: SCC energy               -84.313031499434 Eh    ::
         :: -> Gsolv                  -0.292659067161 Eh    ::
         :: repulsion energy           0.749279952236 Eh    ::

    * Orbital Energies and Occupations

         #    Occupation            Energy/Eh            Energy/eV
      -------------------------------------------------------------
         1        2.0000           -0.8200890             -22.3158
       ...           ...                  ...                  ...
        56        2.0000           -0.4421977             -12.0328
        57        2.0000           -0.4394849             -11.9590
        58        2.0000           -0.4200961             -11.4314
        59        2.0000           -0.4195079             -11.4154
        60        2.0000           -0.4173647             -11.3571
        61        2.0000           -0.4063172             -11.0565
        62        2.0000           -0.4053083             -11.0290
        63        2.0000           -0.3994836             -10.8705
        64        2.0000           -0.3896394             -10.6026
        65        2.0000           -0.3645722              -9.9205
        66        2.0000           -0.3461293              -9.4187
        67        2.0000           -0.3235099              -8.8032
        68        1.9999           -0.2840730              -7.7300 (HOMO)
        69        0.0001           -0.2660150              -7.2386 (LUMO)
        70                         -0.2310614              -6.2875
        71                         -0.2223586              -6.0507
        72                         -0.1651961              -4.4952
        73                         -0.1505000              -4.0953
        74                         -0.1299871              -3.5371
        75                         -0.1105741              -3.0089
        76                         -0.1027556              -2.7961
        77                         -0.1015475              -2.7632
        78                         -0.0904565              -2.4614
        79                         -0.0779777              -2.1219
       ...                                ...                  ...
       134                          0.7480314              20.3550
      -------------------------------------------------------------
                  HL-Gap            0.0180580 Eh            0.4914 eV

Wiberg/Mayer (AO) data.
largest (>0.10) Wiberg bond orders for each atom

     #   Z sym  total        # sym  WBO       # sym  WBO       # sym  WBO
 ---------------------------------------------------------------------------
     1   6 C    3.915 --    27 H    0.987    26 H    0.980    28 H    0.980
                             2 O    0.945
     2   8 O    2.116 --     3 C    0.986     1 C    0.945
     3   6 C    3.856 --     4 O    1.501     5 C    1.233     2 O    0.986
     4   8 O    1.814 --     3 C    1.501
     5   6 C    3.894 --     6 C    1.324     3 C    1.233    24 N    0.972
                             7 O    0.133
     6   6 C    3.940 --     7 O    1.482     5 C    1.324     8 C    0.951
     7   8 O    1.787 --     6 C    1.482     5 C    0.133
     8   6 C    3.889 --     9 O    1.485    10 N    1.254     6 C    0.951
     9   8 O    1.762 --     8 C    1.485    10 N    0.149
    10   7 N    3.400 --     8 C    1.254    11 C    0.975    29 H    0.914
                             9 O    0.149
    11   6 C    3.509 --    24 N    0.984    10 N    0.975    12 C    0.964
    12   6 C    3.924 --    13 C    1.004    14 C    0.990    11 C    0.964
                            15 N    0.887
    13   6 C    3.996 --    12 C    1.004    32 H    0.986    30 H    0.986
                            31 H    0.980
    14   6 C    3.995 --    12 C    0.990    34 H    0.987    35 H    0.986
                            33 H    0.983
    15   7 N    3.336 --    16 C    1.222    36 H    0.913    12 C    0.887
                            17 O    0.154
    16   6 C    3.928 --    17 O    1.462    15 N    1.222    18 C    1.055
    17   8 O    1.790 --    16 C    1.462    15 N    0.154
    18   6 C    3.851 --    19 N    1.510    16 C    1.055    23 O    1.015
    19   7 N    2.977 --    18 C    1.510    20 N    1.177
    20   7 N    2.980 --    21 C    1.634    19 N    1.177
    21   6 C    3.851 --    20 N    1.634    23 O    1.062    22 C    1.025
    22   6 C    3.993 --    21 C    1.025    38 H    0.985    39 H    0.972
                            37 H    0.967
    23   8 O    2.248 --    21 C    1.062    18 C    1.015
    24   7 N    3.097 --    11 C    0.984     5 C    0.972    25 C    0.960
    25   6 C    3.974 --    41 H    0.988    42 H    0.987    40 H    0.983
                            24 N    0.960
    26   1 H    1.019 --     1 C    0.980
    27   1 H    1.019 --     1 C    0.987
    28   1 H    1.020 --     1 C    0.980
    29   1 H    0.977 --    10 N    0.914
    30   1 H    1.019 --    13 C    0.986
    31   1 H    1.031 --    13 C    0.980
    32   1 H    1.013 --    13 C    0.986
    33   1 H    1.008 --    14 C    0.983
    34   1 H    1.009 --    14 C    0.987
    35   1 H    1.014 --    14 C    0.986
    36   1 H    0.985 --    15 N    0.913
    37   1 H    1.001 --    22 C    0.967
    38   1 H    1.003 --    22 C    0.985
    39   1 H    1.000 --    22 C    0.972
    40   1 H    1.013 --    25 C    0.983
    41   1 H    1.034 --    25 C    0.988
    42   1 H    1.028 --    25 C    0.987
 ---------------------------------------------------------------------------

           -------------------------------------------------
          | TOTAL ENERGY              -83.592410939416 Eh   |
          | GRADIENT NORM               0.000699894594 Eh/α |
          | HOMO-LUMO GAP               0.491382824859 eV   |
           -------------------------------------------------

 * finished run on 2023/06/21 at 17:12:57.723
