   * xtb version 6.5.1 (579679a) compiled by 'ehlert@majestix' on 2022-07-11
          program call               : /lustre/hpc/kemi/ree/PhD/git/ReactivityQM/dep/xtb-6.5.1/bin/xtb --gfn 1 /lustre/hpc/kemi/ree/PhD/git/ReactivityQM/calculations/R03/reac02prodN04/conf16/R03_reac02prodN04_conf16_gfn1.xyz --opt --vfukui --chrg 1 --uhf 0 --alpb DMSO

   ID    Z sym.   atoms
    1    6 C      1, 3, 5, 7-10, 12, 14, 17, 18, 21, 22, 24, 26
    2    8 O      2, 4, 13, 19, 23, 25
    3    7 N      6, 11, 15, 16, 20
    4    1 H      27-46

      * Solvation model:               ALPB
        Solvent                        DMSO
        Solvent mass                       7.8130E+01 g/mol
          :  Hamiltonian                  GFN1-xTB          :
 * total energy  :   -86.2899152 Eh     change       -0.1138289E-10 Eh
 * total energy  :   -86.3077789 Eh     change       -0.1786376E-01 Eh
 * total energy  :   -86.3163187 Eh     change       -0.8539788E-02 Eh
 * total energy  :   -86.3192178 Eh     change       -0.2899139E-02 Eh
 * total energy  :   -86.3219748 Eh     change       -0.2756925E-02 Eh
 * total energy  :   -86.3239296 Eh     change       -0.1954792E-02 Eh
 * total energy  :   -86.3258834 Eh     change       -0.1953881E-02 Eh
 * total energy  :   -86.3296518 Eh     change       -0.3768369E-02 Eh
 * total energy  :   -86.3312588 Eh     change       -0.1607008E-02 Eh
 * total energy  :   -86.3337029 Eh     change       -0.2444040E-02 Eh
 * total energy  :   -86.3440867 Eh     change       -0.1821037E-04 Eh
 * total energy  :   -86.3441063 Eh     change       -0.1959724E-04 Eh
 * total energy  :   -86.3441206 Eh     change       -0.1427690E-04 Eh
 * total energy  :   -86.3441362 Eh     change       -0.1566443E-04 Eh
 * total energy  :   -86.3441456 Eh     change       -0.9384287E-05 Eh
 * total energy  :   -86.3441335 Eh     change        0.1212140E-04 Eh
 * total energy  :   -86.3441517 Eh     change       -0.1817933E-04 Eh
 * total energy  :   -86.3441594 Eh     change       -0.7768150E-05 Eh
 * total energy  :   -86.3441629 Eh     change       -0.3441233E-05 Eh
   *** GEOMETRY OPTIMIZATION CONVERGED AFTER 41 ITERATIONS ***

 final structure:
================
46
 xtb: 6.5.1 (579679a)
C           -4.43991854015317        3.65785822184603       -0.07206704785439
O           -3.47919993207346        2.58967707847277        0.03354289018212
C           -3.78354109046785        1.41461403696186       -0.37350857941728
O           -4.96061078079247        1.22757388524601       -0.86894094912729
C           -2.78987916575860        0.37304933928718       -0.25211387840239
N           -1.60569364895167        0.76713202395979        0.29875184426422
C           -0.63469352983486       -0.07450801491788        0.46184851013299
C            0.61368820000577        0.48409020865080        1.13109377776191
C            0.69387828401578       -0.05845622801612        2.56668242513409
C            0.53599413480726        2.01734294795344        1.16200779762404
N            1.77986465059138        0.09712574497478        0.33349110644223
C            3.05635253617879        0.37309013164018        0.71076930948661
O            3.39840739351923        0.79884262055426        1.79564499061951
C            3.99876115912157        0.04960406258865       -0.38719321162898
N            3.67424669705318       -0.35366056213028       -1.57976823970399
N            4.83750545610632       -0.52819643871886       -2.26438080959802
C            5.79937220325329       -0.21964608178231       -1.44576859718331
C            7.25457479409901       -0.24533919585961       -1.71069244054843
O            5.33150471665733        0.15520767771069       -0.24644603794694
N           -0.76119122189698       -1.38822293736129        0.09967704483132
C            0.27149426546597       -2.41785448269012        0.27718044381240
C           -1.91847745398537       -1.90702317774581       -0.46824920164073
O           -1.98170795491149       -3.08795395726871       -0.76369987528326
C           -2.99953563112049       -0.93451082381795       -0.65657870674433
O           -4.17114314029745       -1.26130737766477       -1.18881839586972
C           -4.49944244478655       -2.59618013992958       -1.62556127934995
H           -3.94097626528611        4.54632298824325        0.30741621183793
H           -5.31747969004297        3.41398145154995        0.52728876650245
H           -4.72734030399729        3.78350029556946       -1.11617472714386
H            0.89945156873351       -1.12580899538367        2.57753722924614
H            1.48017932841965        0.45682736726707        3.11510969287135
H           -0.25808132430177        0.12173570692572        3.06353903428788
H            1.44265603311932        2.41400127035746        1.61603232037951
H           -0.32559103279933        2.33293354858555        1.74656159416717
H            0.43855174759678        2.40749736690575        0.15077394173750
H            1.62615681661453       -0.07695018820788       -0.64868958671737
H            7.66044180161227        0.76501061217776       -1.65681868060811
H            7.75794981067916       -0.85187657315374       -0.95861339943775
H            7.43922394394574       -0.65779043114365       -2.69943359558233
H            1.18719121285616       -1.98580594288143        0.65965904267553
H           -0.11294918629105       -3.16987081179248        0.96613675758751
H            0.45373046940299       -2.88373948590496       -0.69129364766391
H           -5.13549703177044        0.30699612993625       -1.16533906303308
H           -3.81533973952179       -2.91512312159057       -2.41214288354403
H           -4.45777753206203       -3.28760161422883       -0.78340766572288
H           -5.51510958274878       -2.52658713517560       -2.00996923183129

          :  Hamiltonian                  GFN1-xTB          :
         :: total energy             -86.344162878361 Eh    ::
         :: gradient norm              0.000481354311 Eh/a0 ::
         :: HOMO-LUMO gap              1.876713918055 eV    ::
         :: SCC energy               -87.173087577413 Eh    ::
         :: -> Gsolv                  -0.104067661887 Eh    ::
         :: repulsion energy           0.857501985882 Eh    ::

    * Orbital Energies and Occupations

         #    Occupation            Energy/Eh            Energy/eV
      -------------------------------------------------------------
         1        2.0000           -0.9131325             -24.8476
       ...           ...                  ...                  ...
        58        2.0000           -0.5262722             -14.3206
        59        2.0000           -0.5182713             -14.1029
        60        2.0000           -0.5129912             -13.9592
        61        2.0000           -0.5113522             -13.9146
        62        2.0000           -0.5029676             -13.6864
        63        2.0000           -0.4892731             -13.3138
        64        2.0000           -0.4865406             -13.2394
        65        2.0000           -0.4811639             -13.0931
        66        2.0000           -0.4732848             -12.8787
        67        2.0000           -0.4674867             -12.7210
        68        2.0000           -0.4601374             -12.5210
        69        2.0000           -0.4584263             -12.4744
        70        2.0000           -0.4540809             -12.3562 (HOMO)
        71                         -0.3851130             -10.4795 (LUMO)
        72                         -0.3193900              -8.6910
        73                         -0.3173053              -8.6343
        74                         -0.2918393              -7.9414
        75                         -0.2616623              -7.1202
        76                         -0.2071528              -5.6369
        77                         -0.2007229              -5.4619
        78                         -0.1667766              -4.5382
        79                         -0.1510109              -4.1092
        80                         -0.1478615              -4.0235
        81                         -0.1441544              -3.9226
       ...                                ...                  ...
       144                          0.7230059              19.6740
      -------------------------------------------------------------
                  HL-Gap            0.0689680 Eh            1.8767 eV

Wiberg/Mayer (AO) data.
largest (>0.10) Wiberg bond orders for each atom

     #   Z sym  total        # sym  WBO       # sym  WBO       # sym  WBO
 ---------------------------------------------------------------------------
     1   6 C    3.820 --    27 H    0.982    29 H    0.972    28 H    0.972
                             2 O    0.851
     2   8 O    2.319 --     3 C    1.287     1 C    0.851
     3   6 C    3.812 --     2 O    1.287     4 O    1.251     5 C    1.119
     4   8 O    2.196 --     3 C    1.251    43 H    0.744
     5   6 C    3.958 --    24 C    1.399     6 N    1.180     3 C    1.119
     6   7 N    3.028 --     7 C    1.561     5 C    1.180
     7   6 C    3.921 --     6 N    1.561    20 N    1.182     8 C    0.977
     8   6 C    3.933 --    10 C    0.989     9 C    0.977     7 C    0.977
                            11 N    0.927
     9   6 C    3.985 --    32 H    0.984    30 H    0.980     8 C    0.977
                            31 H    0.975
    10   6 C    3.988 --     8 C    0.989    35 H    0.985    34 H    0.984
                            33 H    0.981
    11   7 N    3.323 --    12 C    1.216     8 C    0.927    36 H    0.895
                            13 O    0.168
    12   6 C    3.913 --    13 O    1.615    11 N    1.216    14 C    0.993
    13   8 O    1.928 --    12 C    1.615    11 N    0.168
    14   6 C    3.878 --    15 N    1.605    19 O    1.066    12 C    0.993
    15   7 N    3.020 --    14 C    1.605    16 N    1.205
    16   7 N    2.981 --    17 C    1.599    15 N    1.205
    17   6 C    3.869 --    16 N    1.599    19 O    1.084    18 C    1.032
    18   6 C    3.985 --    17 C    1.032    39 H    0.982    38 H    0.965
                            37 H    0.960
    19   8 O    2.334 --    17 C    1.084    14 C    1.066
    20   7 N    3.523 --     7 C    1.182    22 C    1.127    21 C    0.919
                            23 O    0.143
    21   6 C    3.906 --    40 H    0.976    42 H    0.972    41 H    0.971
                            20 N    0.919
    22   6 C    3.919 --    23 O    1.594    20 N    1.127    24 C    1.055
    23   8 O    1.939 --    22 C    1.594    20 N    0.143
    24   6 C    3.908 --     5 C    1.399    25 O    1.134    22 C    1.055
    25   8 O    2.248 --    24 C    1.134    26 C    0.855
    26   6 C    3.829 --    46 H    0.983    44 H    0.974    45 H    0.974
                            25 O    0.855
    27   1 H    1.002 --     1 C    0.982
    28   1 H    0.996 --     1 C    0.972
    29   1 H    0.997 --     1 C    0.972
    30   1 H    1.000 --     9 C    0.980
    31   1 H    1.009 --     9 C    0.975
    32   1 H    1.000 --     9 C    0.984
    33   1 H    1.004 --    10 C    0.981
    34   1 H    1.009 --    10 C    0.984
    35   1 H    1.005 --    10 C    0.985
    36   1 H    0.951 --    11 N    0.895
    37   1 H    0.996 --    18 C    0.960
    38   1 H    0.996 --    18 C    0.965
    39   1 H    0.998 --    18 C    0.982
    40   1 H    1.008 --    21 C    0.976
    41   1 H    0.999 --    21 C    0.971
    42   1 H    1.000 --    21 C    0.972
    43   1 H    0.807 --     4 O    0.744
    44   1 H    1.008 --    26 C    0.974
    45   1 H    1.007 --    26 C    0.974
    46   1 H    1.005 --    26 C    0.983
 ---------------------------------------------------------------------------

           -------------------------------------------------
          | TOTAL ENERGY              -86.344162878361 Eh   |
          | GRADIENT NORM               0.000481354311 Eh/α |
          | HOMO-LUMO GAP               1.876713918055 eV   |
           -------------------------------------------------

 * finished run on 2023/06/20 at 15:38:54.790
