   * xtb version 6.5.1 (579679a) compiled by 'ehlert@majestix' on 2022-07-11
          program call               : /lustre/hpc/kemi/ree/PhD/git/ReactivityQM/dep/xtb-6.5.1/bin/xtb --gfn 1 /lustre/hpc/kemi/ree/PhD/git/ReactivityQM/calculations/R02/reac01prodE05/conf10/R02_reac01prodE05_conf10_gfn1.xyz --opt --vfukui --chrg -1 --uhf 0 --alpb DMSO

   ID    Z sym.   atoms
    1    6 C      1, 3, 5, 6, 8, 11-14, 16, 18, 21, 22, 25
    2    8 O      2, 4, 7, 9, 17, 23
    3    7 N      10, 15, 19, 20, 24
    4    1 H      26-43

      * Solvation model:               ALPB
        Solvent                        DMSO
        Solvent mass                       7.8130E+01 g/mol
          :  Hamiltonian                  GFN1-xTB          :
 * total energy  :   -83.7977968 Eh     change       -0.6493792E-09 Eh
 * total energy  :   -83.8097174 Eh     change       -0.1192061E-01 Eh
 * total energy  :   -83.8167961 Eh     change       -0.7078751E-02 Eh
 * total energy  :   -83.8182683 Eh     change       -0.1472161E-02 Eh
 * total energy  :   -83.8197729 Eh     change       -0.1504620E-02 Eh
 * total energy  :   -83.8205931 Eh     change       -0.8201659E-03 Eh
 * total energy  :   -83.8213183 Eh     change       -0.7252237E-03 Eh
 * total energy  :   -83.8219017 Eh     change       -0.5834145E-03 Eh
 * total energy  :   -83.8224150 Eh     change       -0.5133254E-03 Eh
 * total energy  :   -83.8229026 Eh     change       -0.4875768E-03 Eh
 * total energy  :   -83.8243806 Eh     change       -0.3243206E-04 Eh
 * total energy  :   -83.8243934 Eh     change       -0.1282198E-04 Eh
 * total energy  :   -83.8244232 Eh     change       -0.2978206E-04 Eh
 * total energy  :   -83.8244551 Eh     change       -0.3190700E-04 Eh
 * total energy  :   -83.8244668 Eh     change       -0.1168400E-04 Eh
 * total energy  :   -83.8244820 Eh     change       -0.1521713E-04 Eh
 * total energy  :   -83.8244916 Eh     change       -0.9622479E-05 Eh
 * total energy  :   -83.8244966 Eh     change       -0.5000829E-05 Eh
 * total energy  :   -83.8244987 Eh     change       -0.2058710E-05 Eh
   *** GEOMETRY OPTIMIZATION CONVERGED AFTER 36 ITERATIONS ***

 final structure:
================
43
 xtb: 6.5.1 (579679a)
C           -2.43311365646161        3.18067999600509        2.03286020433493
O           -2.10008105571052        1.95071891507170        1.41320799053344
C           -3.13337248353628        1.38876464838755        0.63563720509747
O           -4.21919383147564        1.99105540998044        0.56744104176748
C           -2.80881495819029        0.17829467894909        0.01914334285141
C           -3.68411221886207       -0.51915520504393       -0.91931588496673
O           -5.05341817475092       -0.58817697941908       -0.64689601663231
C           -3.17439877537614       -1.17596972284121       -1.99676876741624
O           -3.71647448806352       -1.87573015221852       -2.88947411838628
N           -1.69124130605673       -1.03238727172411       -2.08504110212813
C           -0.94877646793868       -0.95829108369934       -0.97099086878208
C            0.43925529765384       -1.59798393921774       -1.01364640144357
C            0.29277947620099       -3.04963481522103       -0.52995449963524
C            1.01205174862505       -1.58856053884872       -2.44175023010344
N            1.34706051683054       -0.80860555229812       -0.17864243784316
C            2.59587822850033       -1.27030159152153        0.19298603747144
O            2.93040117712286       -2.45574848601722        0.20148279204757
C            3.48147868797420       -0.20696064229417        0.64112115623953
N            4.71527612124449       -0.32937318163939        1.07916795977162
N            5.16516928239280        0.93178856997450        1.33839908296772
C            4.20218854174117        1.74766397851825        1.04971855711703
C            4.21209760320960        3.22430087065158        1.16972238658142
O            3.10200774949370        1.10587548241395        0.60431483611549
N           -1.48192218156287       -0.38511743250030        0.08756688763922
C           -0.85047437527481       -0.41499170004204        1.40827005323756
H           -2.64180986234483        3.95664656409613        1.28597900090829
H           -1.57521366210546        3.48156397401683        2.63493861877091
H           -3.31114953910822        3.07452297710561        2.68186122282867
H           -5.45668059563788       -1.11179859105793       -1.35280294747432
H           -1.31613882286996       -1.55017116156210       -2.86390367520144
H           -0.58528495271611       -3.48961472350311       -1.00174426735000
H            1.16587640278260       -3.63349028409101       -0.81161267607631
H            0.17624922804566       -3.09679924959064        0.55081562816270
H            2.05686087928962       -1.89247384702196       -2.39810834392090
H            0.95602269229458       -0.58988512132543       -2.87104909450855
H            0.48338494801890       -2.28963620473874       -3.08431015143852
H            1.31641938137057        0.18181152070593       -0.37840784864293
H            3.59494204951370        3.53873462892513        2.01196394830514
H            5.23108318131844        3.56835175096344        1.33063946417160
H            3.80921902194241        3.67846679384946        0.26558063546801
H           -1.63053350684734       -0.34148014555286        2.16411796306795
H           -0.16204210011497        0.42147274127260        1.51937510342313
H           -0.31145720055762       -1.34837587789762        1.54811021307044

          :  Hamiltonian                  GFN1-xTB          :
         :: total energy             -83.824498681583 Eh    ::
         :: gradient norm              0.000418289604 Eh/a0 ::
         :: HOMO-LUMO gap              0.085690951969 eV    ::
         :: SCC energy               -84.582211282379 Eh    ::
         :: -> Gsolv                  -0.120077036559 Eh    ::
         :: repulsion energy           0.785395569678 Eh    ::

    * Orbital Energies and Occupations

         #    Occupation            Energy/Eh            Energy/eV
      -------------------------------------------------------------
         1        2.0000           -0.8389354             -22.8286
       ...           ...                  ...                  ...
        56        2.0000           -0.4692606             -12.7692
        57        2.0000           -0.4677884             -12.7292
        58        2.0000           -0.4579341             -12.4610
        59        2.0000           -0.4448732             -12.1056
        60        2.0000           -0.4441698             -12.0865
        61        2.0000           -0.4377397             -11.9115
        62        2.0000           -0.4328782             -11.7792
        63        2.0000           -0.4307134             -11.7203
        64        2.0000           -0.4235290             -11.5248
        65        2.0000           -0.4122143             -11.2169
        66        2.0000           -0.3971947             -10.8082
        67        2.0000           -0.3715605             -10.1107
        68        1.6798           -0.2985105              -8.1229 (HOMO)
        69        0.3202           -0.2953614              -8.0372 (LUMO)
        70                         -0.2681656              -7.2972
        71                         -0.2374025              -6.4601
        72                         -0.1763017              -4.7974
        73                         -0.1736052              -4.7240
        74                         -0.1347034              -3.6655
        75                         -0.1298845              -3.5343
        76                         -0.1235727              -3.3626
        77                         -0.1162489              -3.1633
        78                         -0.1150153              -3.1297
        79                         -0.1105357              -3.0078
       ...                                ...                  ...
       136                          0.7300428              19.8655
      -------------------------------------------------------------
                  HL-Gap            0.0031491 Eh            0.0857 eV

Wiberg/Mayer (AO) data.
largest (>0.10) Wiberg bond orders for each atom

     #   Z sym  total        # sym  WBO       # sym  WBO       # sym  WBO
 ---------------------------------------------------------------------------
     1   6 C    3.910 --    27 H    0.987    26 H    0.981    28 H    0.981
                             2 O    0.940
     2   8 O    2.066 --     1 C    0.940     3 C    0.927
     3   6 C    3.840 --     4 O    1.455     5 C    1.348     2 O    0.927
     4   8 O    1.742 --     3 C    1.455     5 C    0.125
     5   6 C    3.682 --     3 C    1.348     6 C    1.077    24 N    0.941
                             4 O    0.125
     6   6 C    3.734 --     8 C    1.472     5 C    1.077     7 O    0.974
                             9 O    0.143
     7   8 O    1.929 --     6 C    0.974    29 H    0.857
     8   6 C    3.825 --     6 C    1.472     9 O    1.387    10 N    0.831
     9   8 O    1.688 --     8 C    1.387     6 C    0.143
    10   7 N    3.320 --    11 C    1.286    30 H    0.904     8 C    0.831
                            24 N    0.134
    11   6 C    3.929 --    24 N    1.440    10 N    1.286    12 C    0.972
    12   6 C    3.944 --    14 C    0.987    13 C    0.980    11 C    0.972
                            15 N    0.940
    13   6 C    3.988 --    31 H    0.985    12 C    0.980    33 H    0.979
                            32 H    0.977
    14   6 C    3.990 --    12 C    0.987    35 H    0.985    34 H    0.981
                            36 H    0.980
    15   7 N    3.224 --    16 C    1.141    12 C    0.940    37 H    0.907
                            17 O    0.135
    16   6 C    3.809 --    17 O    1.530    15 N    1.141    18 C    1.067
    17   8 O    1.797 --    16 C    1.530    15 N    0.135
    18   6 C    3.774 --    19 N    1.513    16 C    1.067    23 O    1.008
    19   7 N    2.854 --    18 C    1.513    20 N    1.195
    20   7 N    2.981 --    21 C    1.619    19 N    1.195
    21   6 C    3.836 --    20 N    1.619    23 O    1.059    22 C    1.028
    22   6 C    3.990 --    21 C    1.028    39 H    0.983    40 H    0.972
                            38 H    0.963
    23   8 O    2.247 --    21 C    1.059    18 C    1.008
    24   7 N    3.537 --    11 C    1.440     5 C    0.941    25 C    0.935
                            10 N    0.134
    25   6 C    3.939 --    41 H    0.982    43 H    0.979    42 H    0.976
                            24 N    0.935
    26   1 H    1.018 --     1 C    0.981
    27   1 H    1.017 --     1 C    0.987
    28   1 H    1.019 --     1 C    0.981
    29   1 H    0.886 --     7 O    0.857
    30   1 H    0.957 --    10 N    0.904
    31   1 H    1.003 --    13 C    0.985
    32   1 H    1.017 --    13 C    0.977
    33   1 H    1.007 --    13 C    0.979
    34   1 H    1.002 --    14 C    0.981
    35   1 H    1.001 --    14 C    0.985
    36   1 H    1.000 --    14 C    0.980
    37   1 H    0.952 --    15 N    0.907
    38   1 H    0.998 --    22 C    0.963
    39   1 H    1.001 --    22 C    0.983
    40   1 H    0.998 --    22 C    0.972
    41   1 H    1.017 --    25 C    0.982
    42   1 H    1.023 --    25 C    0.976
    43   1 H    1.014 --    25 C    0.979
 ---------------------------------------------------------------------------

           -------------------------------------------------
          | TOTAL ENERGY              -83.824498681583 Eh   |
          | GRADIENT NORM               0.000418289604 Eh/α |
          | HOMO-LUMO GAP               0.085690951969 eV   |
           -------------------------------------------------

 * finished run on 2023/06/20 at 14:58:12.630
