   * xtb version 6.5.1 (579679a) compiled by 'ehlert@majestix' on 2022-07-11
          program call               : /lustre/hpc/kemi/ree/PhD/git/ReactivityQM/dep/xtb-6.5.1/bin/xtb --gfn 1 /lustre/hpc/kemi/ree/PhD/git/ReactivityQM/calculations/R02oxygendeprot/reac02prodN01/conf03/R02oxygendeprot_reac02prodN01_conf03_gfn1.xyz --opt --vfukui --chrg 1 --uhf 0 --alpb DMSO

   ID    Z sym.   atoms
    1    6 C      1, 4
    2    8 O      2, 5
    3    5 B      3
    4    1 H      6-13

      * Solvation model:               ALPB
        Solvent                        DMSO
        Solvent mass                       7.8130E+01 g/mol
          :  Hamiltonian                  GFN1-xTB          :
 * total energy  :   -19.0504394 Eh     change       -0.6934187E-10 Eh
 * total energy  :   -19.0615760 Eh     change       -0.1113668E-01 Eh
 * total energy  :   -19.0641928 Eh     change       -0.2616738E-02 Eh
 * total energy  :   -19.0647295 Eh     change       -0.5367203E-03 Eh
 * total energy  :   -19.0650978 Eh     change       -0.3683316E-03 Eh
 * total energy  :   -19.0651356 Eh     change       -0.3774567E-04 Eh
 * total energy  :   -19.0651572 Eh     change       -0.2161305E-04 Eh
 * total energy  :   -19.0651731 Eh     change       -0.1591623E-04 Eh
 * total energy  :   -19.0651877 Eh     change       -0.1462185E-04 Eh
 * total energy  :   -19.0651993 Eh     change       -0.1153803E-04 Eh
 * total energy  :   -19.0652156 Eh     change       -0.1635792E-04 Eh
 * total energy  :   -19.0652356 Eh     change       -0.1996091E-04 Eh
 * total energy  :   -19.0652542 Eh     change       -0.1862558E-04 Eh
 * total energy  :   -19.0652734 Eh     change       -0.1918390E-04 Eh
 * total energy  :   -19.0652819 Eh     change       -0.8487018E-05 Eh
 * total energy  :   -19.0652557 Eh     change        0.2616112E-04 Eh
 * total energy  :   -19.0652887 Eh     change       -0.3302343E-04 Eh
 * total energy  :   -19.0652931 Eh     change       -0.4316829E-05 Eh
   *** GEOMETRY OPTIMIZATION CONVERGED AFTER 18 ITERATIONS ***

 final structure:
================
13
 xtb: 6.5.1 (579679a)
C            2.02692066008038       -0.16924181538902       -0.02696029692694
O            0.72891320486284        0.42020698452544       -0.33372818066966
B           -0.57917783752817       -0.20420925591606       -0.07153825834477
C           -1.82756151430115        0.59112377778516       -0.52891337195878
O           -0.44728724599925       -1.38551463569210        0.51900499221763
H            1.83117585534716       -1.05417282884474        0.57392755443548
H            2.60787249661052        0.56066392830738        0.53408490705166
H            2.51862646852107       -0.43456996743389       -0.96216212806759
H            0.78288206271315        1.26163096827887       -0.80576523890626
H           -2.66350631862804        0.43725093959148        0.15095121408040
H           -2.14579890280809        0.24523747215804       -1.51336010499687
H           -1.63095410059793        1.65758427390676       -0.60463094072939
H           -1.20210482827246       -1.92599084127751        0.75197385281533

          :  Hamiltonian                  GFN1-xTB          :
         :: total energy             -19.065293066386 Eh    ::
         :: gradient norm              0.000571960333 Eh/a0 ::
         :: HOMO-LUMO gap              7.488548892303 eV    ::
         :: SCC energy               -19.256577167548 Eh    ::
         :: -> Gsolv                  -0.095043852483 Eh    ::
         :: repulsion energy           0.194763779890 Eh    ::

    * Orbital Energies and Occupations

         #    Occupation            Energy/Eh            Energy/eV
      -------------------------------------------------------------
         1        2.0000           -0.9096264             -24.7522
       ...           ...                  ...                  ...
         3        2.0000           -0.7655027             -20.8304
         4        2.0000           -0.7557549             -20.5651
         5        2.0000           -0.6871478             -18.6982
         6        2.0000           -0.6732474             -18.3200
         7        2.0000           -0.6638683             -18.0648
         8        2.0000           -0.6502439             -17.6940
         9        2.0000           -0.6221900             -16.9307
        10        2.0000           -0.6042398             -16.4422
        11        2.0000           -0.5659336             -15.3998
        12        2.0000           -0.5532020             -15.0534
        13        2.0000           -0.5443626             -14.8129
        14        2.0000           -0.5433839             -14.7862
        15        2.0000           -0.5241230             -14.2621 (HOMO)
        16                         -0.2489239              -6.7736 (LUMO)
        17                         -0.1892979              -5.1511
        18                         -0.1755831              -4.7779
        19                         -0.1499252              -4.0797
        20                         -0.1262599              -3.4357
        21                         -0.1081698              -2.9434
        22                         -0.0952444              -2.5917
        23                         -0.0790520              -2.1511
        24                         -0.0717841              -1.9533
        25                         -0.0513642              -1.3977
        26                          0.0894969               2.4353
       ...                                ...                  ...
        36                          0.6425934              17.4859
      -------------------------------------------------------------
                  HL-Gap            0.2751991 Eh            7.4885 eV

Wiberg/Mayer (AO) data.
largest (>0.10) Wiberg bond orders for each atom

     #   Z sym  total        # sym  WBO       # sym  WBO       # sym  WBO
 ---------------------------------------------------------------------------
     1   6 C    3.783 --     7 H    0.982     8 H    0.982     6 H    0.978
                             2 O    0.809
     2   8 O    2.394 --     1 C    0.809     3 B    0.767     9 H    0.759
     3   5 B    3.138 --     5 O    1.256     4 C    1.034     2 O    0.767
     4   6 C    3.986 --     3 B    1.034    12 H    0.974    10 H    0.966
                            11 H    0.948
     5   8 O    2.144 --     3 B    1.256    13 H    0.792
     6   1 H    1.000 --     1 C    0.978
     7   1 H    0.995 --     1 C    0.982
     8   1 H    0.995 --     1 C    0.982
     9   1 H    0.789 --     2 O    0.759
    10   1 H    0.992 --     4 C    0.966
    11   1 H    0.991 --     4 C    0.948
    12   1 H    0.993 --     4 C    0.974
    13   1 H    0.812 --     5 O    0.792
 ---------------------------------------------------------------------------

           -------------------------------------------------
          | TOTAL ENERGY              -19.065293066386 Eh   |
          | GRADIENT NORM               0.000571960333 Eh/α |
          | HOMO-LUMO GAP               7.488548892303 eV   |
           -------------------------------------------------

 * finished run on 2023/06/21 at 17:40:21.455
