   * xtb version 6.5.1 (579679a) compiled by 'ehlert@majestix' on 2022-07-11
          program call               : /lustre/hpc/kemi/ree/PhD/git/ReactivityQM/dep/xtb-6.5.1/bin/xtb --gfn 1 /lustre/hpc/kemi/ree/PhD/git/ReactivityQM/calculations/R02methylcation/reac01prodN10/conf04/R02methylcation_reac01prodN10_conf04_gfn1.xyz --opt --vfukui --chrg 0 --uhf 0 --alpb DMSO

   ID    Z sym.   atoms
    1    6 C      1, 3, 5, 6, 8, 11-15, 17, 19, 22, 23
    2    8 O      2, 4, 7, 9, 18, 24
    3    7 N      10, 16, 20, 21, 25
    4    1 H      26-42

      * Solvation model:               ALPB
        Solvent                        DMSO
        Solvent mass                       7.8130E+01 g/mol
          :  Hamiltonian                  GFN1-xTB          :
 * total energy  :   -82.9630471 Eh     change       -0.1635669E-10 Eh
 * total energy  :   -82.9748101 Eh     change       -0.1176302E-01 Eh
 * total energy  :   -82.9798870 Eh     change       -0.5076812E-02 Eh
 * total energy  :   -82.9809115 Eh     change       -0.1024516E-02 Eh
 * total energy  :   -82.9813962 Eh     change       -0.4847454E-03 Eh
 * total energy  :   -82.9816458 Eh     change       -0.2495376E-03 Eh
 * total energy  :   -82.9818189 Eh     change       -0.1731419E-03 Eh
 * total energy  :   -82.9819335 Eh     change       -0.1146181E-03 Eh
 * total energy  :   -82.9820313 Eh     change       -0.9781260E-04 Eh
 * total energy  :   -82.9821210 Eh     change       -0.8962743E-04 Eh
 * total energy  :   -82.9826619 Eh     change       -0.1063111E-04 Eh
 * total energy  :   -82.9826704 Eh     change       -0.8478957E-05 Eh
 * total energy  :   -82.9826638 Eh     change        0.6581584E-05 Eh
 * total energy  :   -82.9826757 Eh     change       -0.1191743E-04 Eh
 * total energy  :   -82.9826812 Eh     change       -0.5487800E-05 Eh
 * total energy  :   -82.9826859 Eh     change       -0.4711095E-05 Eh
 * total energy  :   -82.9826930 Eh     change       -0.7098048E-05 Eh
 * total energy  :   -82.9826976 Eh     change       -0.4600182E-05 Eh
 * total energy  :   -82.9827001 Eh     change       -0.2479650E-05 Eh
   *** GEOMETRY OPTIMIZATION CONVERGED AFTER 44 ITERATIONS ***

 final structure:
================
42
 xtb: 6.5.1 (579679a)
C           -2.35131491166628        2.19757646935924        3.15484776618651
O           -2.19270075468917        1.23675114761680        2.10170396726993
C           -3.05477815613755        1.31029317665358        1.10019461512554
O           -3.94128101222281        2.11987977497793        1.01896569402625
C           -2.78273452847128        0.25032989017622        0.04974407257523
C           -3.91709834979974       -0.24169518322062       -0.78426685355956
O           -5.07394938419610       -0.12464289597140       -0.47210154103082
C           -3.49052153418828       -0.95640965946396       -2.06822662893112
O           -4.25637023508528       -1.17309437135989       -2.98471022800049
N           -2.18841805381731       -1.30966203481861       -2.10147819292546
C           -1.21550135546108       -1.15971593560589       -1.03781562862526
C           -1.09879141367980       -2.48890613837055       -0.27414493707560
C            0.14612303133994       -0.69048995573391       -1.64792779211098
C           -0.07266629007962        0.60331461922630       -2.44129217397807
C            0.78314808508406       -1.77024925055714       -2.52430794610575
N            1.00852084137934       -0.41464678094603       -0.49969694245423
C            2.29358161199310       -0.01171543853384       -0.60485447978674
O            2.93428314292566        0.06882204008960       -1.63695958248774
C            2.85003018437191        0.30864671292960        0.73499506368329
N            2.21436029587837        0.23777239075390        1.86601998832540
N            3.09257317591887        0.62065827167643        2.83453219413876
C            4.20829136553135        0.90274257794923        2.23198934386281
C            5.47437644594425        1.36511237273719        2.84177313961453
O            4.11752189542499        0.72545793663546        0.90568525528965
N           -1.58662763645966       -0.17169618850484       -0.07421816287324
H           -2.13604613653148        3.19902704908124        2.77678903096915
H           -1.64269966929392        1.92388329177573        3.93288894461549
H           -3.37309960486933        2.16391778015833        3.53871408670624
H           -1.91229784504789       -1.87908899774264       -2.88698261710805
H           -0.28442107791765       -2.43668443574263        0.44470670539035
H           -2.03251573256062       -2.67931505260058        0.25160565692578
H           -0.91542105835093       -3.29847100717726       -0.97567053105028
H           -0.51099732487226        1.36564815888269       -1.79857882220549
H           -0.74059632599849        0.41524958252850       -3.27965250291642
H            0.88119395228518        0.96317044451530       -2.82333693854140
H            1.66013790861239       -1.36359402911755       -3.02553355348393
H            1.09251618383337       -2.62195824637609       -1.92192180042649
H            0.08057003833969       -2.10660435907447       -3.28363717404242
H            0.55116816577641       -0.29627457858387        0.39616332793223
H            6.26266260623284        0.63508118182167        2.65819069634482
H            5.77964422179842        2.31090835311546        2.39491328070461
H            5.34014423872507        1.49264131684497        3.91289720002768

          :  Hamiltonian                  GFN1-xTB          :
         :: total energy             -82.982700094569 Eh    ::
         :: gradient norm              0.000393049676 Eh/a0 ::
         :: HOMO-LUMO gap              1.736052955398 eV    ::
         :: SCC energy               -83.763687159521 Eh    ::
         :: -> Gsolv                  -0.054484017374 Eh    ::
         :: repulsion energy           0.808432499005 Eh    ::

    * Orbital Energies and Occupations

         #    Occupation            Energy/Eh            Energy/eV
      -------------------------------------------------------------
         1        2.0000           -0.8656902             -23.5566
       ...           ...                  ...                  ...
        55        2.0000           -0.5085985             -13.8397
        56        2.0000           -0.5081466             -13.8274
        57        2.0000           -0.5076071             -13.8127
        58        2.0000           -0.5027384             -13.6802
        59        2.0000           -0.4971203             -13.5273
        60        2.0000           -0.4848627             -13.1938
        61        2.0000           -0.4829607             -13.1420
        62        2.0000           -0.4719066             -12.8412
        63        2.0000           -0.4658637             -12.6768
        64        2.0000           -0.4615783             -12.5602
        65        2.0000           -0.4543568             -12.3637
        66        2.0000           -0.4491959             -12.2232
        67        2.0000           -0.4400396             -11.9741 (HOMO)
        68                         -0.3762408             -10.2380 (LUMO)
        69                         -0.3205354              -8.7222
        70                         -0.3132495              -8.5240
        71                         -0.2588601              -7.0439
        72                         -0.2541272              -6.9152
        73                         -0.2041597              -5.5555
        74                         -0.2012163              -5.4754
        75                         -0.1452422              -3.9522
        76                         -0.1443413              -3.9277
        77                         -0.1434284              -3.9029
        78                         -0.1390124              -3.7827
       ...                                ...                  ...
       134                          0.7670592              20.8727
      -------------------------------------------------------------
                  HL-Gap            0.0637988 Eh            1.7361 eV

Wiberg/Mayer (AO) data.
largest (>0.10) Wiberg bond orders for each atom

     #   Z sym  total        # sym  WBO       # sym  WBO       # sym  WBO
 ---------------------------------------------------------------------------
     1   6 C    3.860 --    27 H    0.986    28 H    0.979    26 H    0.979
                             2 O    0.885
     2   8 O    2.220 --     3 C    1.141     1 C    0.885     4 O    0.146
     3   6 C    3.853 --     4 O    1.692     2 O    1.141     5 C    0.944
     4   8 O    1.951 --     3 C    1.692     2 O    0.146
     5   6 C    3.953 --    25 N    1.790     6 C    0.993     3 C    0.944
     6   6 C    3.858 --     7 O    1.805     5 C    0.993     8 C    0.908
     7   8 O    2.012 --     6 C    1.805
     8   6 C    3.903 --     9 O    1.635    10 N    1.246     6 C    0.908
     9   8 O    1.929 --     8 C    1.635    10 N    0.185
    10   7 N    3.365 --     8 C    1.246    11 C    0.940    29 H    0.882
                             9 O    0.185
    11   6 C    3.914 --    25 N    1.002    12 C    0.947    10 N    0.940
                            13 C    0.925
    12   6 C    3.981 --    31 H    0.982    30 H    0.981    32 H    0.980
                            11 C    0.947
    13   6 C    3.927 --    15 C    0.999    14 C    0.991    16 N    0.933
                            11 C    0.925
    14   6 C    3.989 --    13 C    0.991    33 H    0.984    34 H    0.984
                            35 H    0.980
    15   6 C    3.988 --    13 C    0.999    37 H    0.982    38 H    0.981
                            36 H    0.974
    16   7 N    3.341 --    17 C    1.245    13 C    0.933    39 H    0.887
                            18 O    0.175
    17   6 C    3.916 --    18 O    1.598    16 N    1.245    19 C    0.989
    18   8 O    1.915 --    17 C    1.598    16 N    0.175
    19   6 C    3.875 --    20 N    1.610    24 O    1.065    17 C    0.989
    20   7 N    3.017 --    19 C    1.610    21 N    1.200
    21   7 N    2.980 --    22 C    1.604    20 N    1.200
    22   6 C    3.870 --    21 N    1.604    24 O    1.083    23 C    1.031
    23   6 C    3.986 --    22 C    1.031    42 H    0.982    41 H    0.964
                            40 H    0.962
    24   8 O    2.331 --    22 C    1.083    19 C    1.065
    25   7 N    3.062 --     5 C    1.790    11 C    1.002
    26   1 H    1.004 --     1 C    0.979
    27   1 H    1.009 --     1 C    0.986
    28   1 H    1.005 --     1 C    0.979
    29   1 H    0.930 --    10 N    0.882
    30   1 H    0.999 --    12 C    0.981
    31   1 H    0.999 --    12 C    0.982
    32   1 H    0.999 --    12 C    0.980
    33   1 H    1.004 --    14 C    0.984
    34   1 H    1.002 --    14 C    0.984
    35   1 H    1.005 --    14 C    0.980
    36   1 H    1.008 --    15 C    0.974
    37   1 H    1.001 --    15 C    0.982
    38   1 H    0.998 --    15 C    0.981
    39   1 H    0.969 --    16 N    0.887
    40   1 H    0.996 --    23 C    0.962
    41   1 H    0.996 --    23 C    0.964
    42   1 H    0.998 --    23 C    0.982
 ---------------------------------------------------------------------------

           -------------------------------------------------
          | TOTAL ENERGY              -82.982700094569 Eh   |
          | GRADIENT NORM               0.000393049676 Eh/α |
          | HOMO-LUMO GAP               1.736052955398 eV   |
           -------------------------------------------------

 * finished run on 2023/06/21 at 17:41:45.531
