   * xtb version 6.5.1 (579679a) compiled by 'ehlert@majestix' on 2022-07-11
          program call               : /lustre/hpc/kemi/ree/PhD/git/ReactivityQM/dep/xtb-6.5.1/bin/xtb --gfn 1 /lustre/hpc/kemi/ree/PhD/git/ReactivityQM/calculations/R02deprot/reac01prodE14/conf08/R02deprot_reac01prodE14_conf08_gfn1.xyz --opt --vfukui --chrg -2 --uhf 0 --alpb DMSO

   ID    Z sym.   atoms
    1    6 C      1, 3, 5, 7-10, 12, 14, 17, 18, 21, 23, 24
    2    8 O      2, 4, 13, 19, 22, 25
    3    7 N      6, 11, 15, 16, 20
    4    1 H      26-42

      * Solvation model:               ALPB
        Solvent                        DMSO
        Solvent mass                       7.8130E+01 g/mol
          :  Hamiltonian                  GFN1-xTB          :
 * total energy  :   -83.5867171 Eh     change       -0.3638192E-08 Eh
 * total energy  :   -83.6093420 Eh     change       -0.2262485E-01 Eh
 * total energy  :   -83.6200763 Eh     change       -0.1073436E-01 Eh
 * total energy  :   -83.6225243 Eh     change       -0.2447969E-02 Eh
 * total energy  :   -83.6241542 Eh     change       -0.1629907E-02 Eh
 * total energy  :   -83.6248873 Eh     change       -0.7330730E-03 Eh
 * total energy  :   -83.6254358 Eh     change       -0.5484819E-03 Eh
 * total energy  :   -83.6258013 Eh     change       -0.3655113E-03 Eh
 * total energy  :   -83.6261260 Eh     change       -0.3247588E-03 Eh
 * total energy  :   -83.6264221 Eh     change       -0.2960092E-03 Eh
 * total energy  :   -83.6325433 Eh     change       -0.1644413E-04 Eh
 * total energy  :   -83.6325491 Eh     change       -0.5813582E-05 Eh
 * total energy  :   -83.6325575 Eh     change       -0.8338646E-05 Eh
 * total energy  :   -83.6325695 Eh     change       -0.1201362E-04 Eh
 * total energy  :   -83.6325864 Eh     change       -0.1694124E-04 Eh
 * total energy  :   -83.6325990 Eh     change       -0.1257608E-04 Eh
 * total energy  :   -83.6326060 Eh     change       -0.7028436E-05 Eh
 * total energy  :   -83.6326133 Eh     change       -0.7278280E-05 Eh
 * total energy  :   -83.6326179 Eh     change       -0.4634817E-05 Eh
   *** GEOMETRY OPTIMIZATION CONVERGED AFTER 83 ITERATIONS ***

 final structure:
================
42
 xtb: 6.5.1 (579679a)
C           -6.29336858238487        0.90370524284665        0.70079391012703
O           -5.13447994665583        0.46369110676147        0.02691456185072
C           -3.96539986744615        0.41940768512623        0.82597330654871
O           -4.07543084261761        0.76939440673182        2.02286342881342
C           -2.80329461271345        0.00819979424858        0.17236652373004
N           -1.66724763202961       -0.04946059484540        0.98233426151040
C           -0.50655936480756       -0.16476337962471        0.42044679686665
C            0.69909067765008       -0.32152803563939        1.35045140205696
C            0.68114685392695       -1.72694075933238        1.97115605019080
C            0.65120695695637        0.74500692186804        2.45392311277853
N            1.89660445354947       -0.14880117324109        0.53150455144510
C            3.15894312478082       -0.17086214114728        0.96458351611238
O            3.52247346205081       -0.37862103194047        2.12265341911468
C            4.11253133065356        0.10106241534327       -0.14176030217520
N            3.80201249897881        0.33271734955819       -1.38688881048769
N            4.97522477821598        0.55350017416677       -2.05203369914912
C            5.92293760358833        0.44486806837972       -1.17690831445953
C            7.37734005993261        0.60692297690424       -1.40097165389321
O            5.45201085558198        0.15942253421310        0.04966764646817
N           -0.22453188336036       -0.02697521209761       -0.90918990236628
C           -1.23997701936728       -0.00569547038029       -1.76498351829857
O           -1.12541406526972        0.37325186501398       -2.95249310859447
C           -2.63555019737463       -0.49386021318310       -1.24516856633820
C           -3.71392654015787       -0.06655232502768       -2.24672391148113
O           -2.55843598227869       -1.95202346571227       -1.26291718078332
H           -7.11438272847938        0.89611019712159       -0.01859772341357
H           -6.54700338663573        0.24194255203307        1.53921609617714
H           -6.17036023291244        1.92234228608800        1.09237861987141
H           -0.25918637230039       -1.86248383762933        2.50489185013123
H            1.50761648341847       -1.85772065395163        2.66884860965764
H            0.75440446629677       -2.48363678088324        1.19011494401849
H            1.43359214254337        0.58195086902752        3.19391120897818
H            0.77525276829906        1.73791635573642        2.02146081961331
H           -0.32170359154539        0.69406103717887        2.94425929095948
H            1.69655953525689        0.02405664509704       -0.45985004716997
H            7.90719389893873       -0.29959766502202       -1.11078544726474
H            7.56296728602398        0.81499648727641       -2.45152806631686
H            7.76030640131316        1.42858754010489       -0.79637656351963
H           -3.87874999360317        1.00935965851307       -2.19871739468580
H           -4.65206608800226       -0.58205360273171       -2.05116844431657
H           -3.38959141720481       -0.32646825013015       -3.25632959106757
H           -3.37275829082065       -2.31442757682484       -0.90071468123585

          :  Hamiltonian                  GFN1-xTB          :
         :: total energy             -83.632617935819 Eh    ::
         :: gradient norm              0.000687050967 Eh/a0 ::
         :: HOMO-LUMO gap              0.152913517059 eV    ::
         :: SCC energy               -84.366196597115 Eh    ::
         :: -> Gsolv                  -0.285785768074 Eh    ::
         :: repulsion energy           0.759303079210 Eh    ::

    * Orbital Energies and Occupations

         #    Occupation            Energy/Eh            Energy/eV
      -------------------------------------------------------------
         1        2.0000           -0.8426678             -22.9302
       ...           ...                  ...                  ...
        56        2.0000           -0.4364794             -11.8772
        57        2.0000           -0.4330424             -11.7837
        58        2.0000           -0.4256717             -11.5831
        59        2.0000           -0.4232686             -11.5177
        60        2.0000           -0.4218867             -11.4801
        61        2.0000           -0.4173253             -11.3560
        62        2.0000           -0.4084072             -11.1133
        63        2.0000           -0.3935852             -10.7100
        64        2.0000           -0.3807629             -10.3611
        65        2.0000           -0.3571616              -9.7189
        66        2.0000           -0.3530795              -9.6078
        67        2.0000           -0.3280868              -8.9277
        68        1.9012           -0.2901692              -7.8959 (HOMO)
        69        0.0988           -0.2845497              -7.7430 (LUMO)
        70                         -0.2400849              -6.5330
        71                         -0.1987389              -5.4080
        72                         -0.1704339              -4.6377
        73                         -0.1368252              -3.7232
        74                         -0.1337858              -3.6405
        75                         -0.1146847              -3.1207
        76                         -0.1022621              -2.7827
        77                         -0.0951017              -2.5878
        78                         -0.0927917              -2.5250
        79                         -0.0703597              -1.9146
       ...                                ...                  ...
       134                          0.7254136              19.7395
      -------------------------------------------------------------
                  HL-Gap            0.0056195 Eh            0.1529 eV

Wiberg/Mayer (AO) data.
largest (>0.10) Wiberg bond orders for each atom

     #   Z sym  total        # sym  WBO       # sym  WBO       # sym  WBO
 ---------------------------------------------------------------------------
     1   6 C    3.921 --    26 H    0.987    27 H    0.980    28 H    0.980
                             2 O    0.952
     2   8 O    2.065 --     1 C    0.952     3 C    0.913
     3   6 C    3.850 --     4 O    1.434     5 C    1.372     2 O    0.913
     4   8 O    1.731 --     3 C    1.434     5 C    0.120
     5   6 C    3.816 --     3 C    1.372     6 N    1.130    23 C    0.988
                             4 O    0.120
     6   7 N    3.005 --     7 C    1.572     5 C    1.130    20 N    0.104
     7   6 C    3.929 --     6 N    1.572    20 N    1.189     8 C    0.960
     8   6 C    3.919 --    10 C    0.987     9 C    0.983     7 C    0.960
                            11 N    0.919
     9   6 C    3.993 --    31 H    0.987    29 H    0.986    30 H    0.985
                             8 C    0.983
    10   6 C    3.994 --    33 H    0.987     8 C    0.987    32 H    0.985
                            34 H    0.983
    11   7 N    3.373 --    12 C    1.302     8 C    0.919    35 H    0.866
                            13 O    0.183
    12   6 C    3.901 --    13 O    1.525    11 N    1.302    14 C    0.997
    13   8 O    1.833 --    12 C    1.525    11 N    0.183
    14   6 C    3.821 --    15 N    1.584    19 O    1.043    12 C    0.997
    15   7 N    2.957 --    14 C    1.584    16 N    1.186
    16   7 N    2.980 --    17 C    1.622    15 N    1.186
    17   6 C    3.864 --    16 N    1.622    19 O    1.074    18 C    1.028
    18   6 C    3.990 --    17 C    1.028    37 H    0.984    36 H    0.967
                            38 H    0.966
    19   8 O    2.293 --    17 C    1.074    14 C    1.043
    20   7 N    2.979 --    21 C    1.375     7 C    1.189    22 O    0.136
                             6 N    0.104
    21   6 C    3.901 --    22 O    1.473    20 N    1.375    23 C    0.901
    22   8 O    1.758 --    21 C    1.473    20 N    0.136
    23   6 C    3.891 --    24 C    0.995     5 C    0.988    21 C    0.901
                            25 O    0.887
    24   6 C    3.996 --    23 C    0.995    39 H    0.986    40 H    0.985
                            41 H    0.983
    25   8 O    1.858 --    23 C    0.887    42 H    0.883
    26   1 H    1.020 --     1 C    0.987
    27   1 H    1.023 --     1 C    0.980
    28   1 H    1.023 --     1 C    0.980
    29   1 H    1.017 --     9 C    0.986
    30   1 H    1.014 --     9 C    0.985
    31   1 H    1.010 --     9 C    0.987
    32   1 H    1.015 --    10 C    0.985
    33   1 H    1.009 --    10 C    0.987
    34   1 H    1.026 --    10 C    0.983
    35   1 H    0.998 --    11 N    0.866
    36   1 H    0.999 --    18 C    0.967
    37   1 H    1.001 --    18 C    0.984
    38   1 H    0.999 --    18 C    0.966
    39   1 H    1.019 --    24 C    0.986
    40   1 H    1.023 --    24 C    0.985
    41   1 H    1.027 --    24 C    0.983
    42   1 H    0.910 --    25 O    0.883
 ---------------------------------------------------------------------------

           -------------------------------------------------
          | TOTAL ENERGY              -83.632617935819 Eh   |
          | GRADIENT NORM               0.000687050967 Eh/α |
          | HOMO-LUMO GAP               0.152913517059 eV   |
           -------------------------------------------------

 * finished run on 2023/06/20 at 18:04:22.572
