   * xtb version 6.5.1 (579679a) compiled by 'ehlert@majestix' on 2022-07-11
          program call               : /lustre/hpc/kemi/ree/PhD/git/ReactivityQM/dep/xtb-6.5.1/bin/xtb --gfn 1 /lustre/hpc/kemi/ree/PhD/git/ReactivityQM/calculations/R02deprot/reac01prodN17/conf16/R02deprot_reac01prodN17_conf16_gfn1.xyz --opt --vfukui --chrg 0 --uhf 0 --alpb DMSO

   ID    Z sym.   atoms
    1    6 C      1, 2, 5, 6, 9-12, 14, 15, 18-20, 22
    2    7 N      3, 4, 8, 13, 24
    3    8 O      7, 16, 17, 21, 23, 25
    4    1 H      26-42

      * Solvation model:               ALPB
        Solvent                        DMSO
        Solvent mass                       7.8130E+01 g/mol
          :  Hamiltonian                  GFN1-xTB          :
 * total energy  :   -82.9103142 Eh     change       -0.2341949E-10 Eh
 * total energy  :   -82.9233836 Eh     change       -0.1306939E-01 Eh
 * total energy  :   -82.9280920 Eh     change       -0.4708399E-02 Eh
 * total energy  :   -82.9291200 Eh     change       -0.1027974E-02 Eh
 * total energy  :   -82.9301929 Eh     change       -0.1072875E-02 Eh
 * total energy  :   -82.9308818 Eh     change       -0.6889589E-03 Eh
 * total energy  :   -82.9315030 Eh     change       -0.6211944E-03 Eh
 * total energy  :   -82.9320178 Eh     change       -0.5147355E-03 Eh
 * total energy  :   -82.9323815 Eh     change       -0.3637252E-03 Eh
 * total energy  :   -82.9326264 Eh     change       -0.2448559E-03 Eh
 * total energy  :   -82.9342132 Eh     change       -0.2632600E-04 Eh
 * total energy  :   -82.9342318 Eh     change       -0.1866642E-04 Eh
 * total energy  :   -82.9342651 Eh     change       -0.3324770E-04 Eh
 * total energy  :   -82.9342785 Eh     change       -0.1337105E-04 Eh
 * total energy  :   -82.9342952 Eh     change       -0.1671003E-04 Eh
 * total energy  :   -82.9343023 Eh     change       -0.7098081E-05 Eh
 * total energy  :   -82.9343118 Eh     change       -0.9565645E-05 Eh
 * total energy  :   -82.9343170 Eh     change       -0.5214369E-05 Eh
 * total energy  :   -82.9343220 Eh     change       -0.4948109E-05 Eh
   *** GEOMETRY OPTIMIZATION CONVERGED AFTER 47 ITERATIONS ***

 final structure:
================
42
 xtb: 6.5.1 (579679a)
C            6.48381142636148       -0.67649402509449        0.99117885403128
C            5.76317312604736        0.02364812419234       -0.09502524292540
N            6.27433244378362        0.68942755014704       -1.08329107515225
N            5.22796215529539        1.16469589162859       -1.81808296552233
C            4.14349222899655        0.75747565355269       -1.23404232942716
C            2.73792607232236        1.03077301255168       -1.64388743577952
O            2.48366474852631        1.73679987523779       -2.61126049035093
N            1.83782354460703        0.44106790426118       -0.84804680947472
C            0.39262372335861        0.55548671726950       -1.01537322579165
C           -0.03842034362202        2.02216360203119       -0.89693130990081
C           -0.02804812171097       -0.03058036242240       -2.37180485109777
C           -0.26093393996644       -0.26740270934715        0.08604066930434
N           -1.55812496142664       -0.08490352724903        0.23677425926150
C           -2.17396243414956       -0.83141095218770        1.20610815191859
C           -3.55460354031592       -0.64303480850550        1.46805249345808
O           -4.28453079808277       -1.15316133702836        2.26387231531206
O           -4.19472206129409        0.47001293770710        0.62949611477694
C           -5.45496587492802        0.91110604281783        1.19656733080895
C           -4.26127156508622        0.20279393902277       -0.79817017197438
C           -1.45754440046107       -1.74872539968980        1.97164847472955
O           -1.99028832199444       -2.50341200698355        2.92608505268379
C            0.00203861301729       -1.89932643930374        1.73678417171959
O            0.67972562743852       -2.69482855286719        2.38587859467331
N            0.51549891658896       -1.09933724331270        0.76460123712629
O            4.42089318085968        0.02657749047517       -0.13221221742599
H            6.22361999514781       -0.23601314928157        1.95367373846572
H            6.19877783269884       -1.72794740535294        1.01340644415292
H            7.55583400489326       -0.59128863402360        0.83139707692442
H            2.13966758285303       -0.16171009997574       -0.08768126301175
H            0.32333214283587        2.44263063941424        0.04066762815654
H            0.35531505992779        2.60513513290806       -1.72811756997578
H           -1.12553883922851        2.07333713498561       -0.90895204674962
H           -1.11383104662617       -0.01013034842685       -2.44547632813476
H            0.39462890432461        0.55444468566947       -3.18718674400334
H            0.31269711820801       -1.06201384965863       -2.45445114655450
H           -6.19956871298746        0.12059817371485        1.10399090987816
H           -5.26696780669386        1.14697241124700        2.24146099761484
H           -5.75265379009054        1.79917400684381        0.64559944810390
H           -3.24172721305061       -0.00231689796193       -1.12221919880419
H           -4.63815584400154        1.10801124560865       -1.26859863212130
H           -4.92443069179104       -0.64139344561263       -0.98548204737680
H           -2.94654914059627       -2.36458597701737        3.04301113846765

          :  Hamiltonian                  GFN1-xTB          :
         :: total energy             -82.934321995155 Eh    ::
         :: gradient norm              0.000786547208 Eh/a0 ::
         :: HOMO-LUMO gap              1.615258021367 eV    ::
         :: SCC energy               -83.712473164172 Eh    ::
         :: -> Gsolv                  -0.077507641309 Eh    ::
         :: repulsion energy           0.804223323856 Eh    ::

    * Orbital Energies and Occupations

         #    Occupation            Energy/Eh            Energy/eV
      -------------------------------------------------------------
         1        2.0000           -0.9049663             -24.6254
       ...           ...                  ...                  ...
        55        2.0000           -0.4999910             -13.6054
        56        2.0000           -0.4910533             -13.3622
        57        2.0000           -0.4890988             -13.3091
        58        2.0000           -0.4747391             -12.9183
        59        2.0000           -0.4630255             -12.5996
        60        2.0000           -0.4580190             -12.4633
        61        2.0000           -0.4565742             -12.4240
        62        2.0000           -0.4525626             -12.3149
        63        2.0000           -0.4453333             -12.1181
        64        2.0000           -0.4357598             -11.8576
        65        2.0000           -0.4306955             -11.7198
        66        2.0000           -0.4020069             -10.9392
        67        2.0000           -0.4018048             -10.9337 (HOMO)
        68                         -0.3424452              -9.3184 (LUMO)
        69                         -0.3019702              -8.2170
        70                         -0.2576799              -7.0118
        71                         -0.2527738              -6.8783
        72                         -0.2332903              -6.3482
        73                         -0.1902384              -5.1767
        74                         -0.1686950              -4.5904
        75                         -0.1589992              -4.3266
        76                         -0.1416578              -3.8547
        77                         -0.1411569              -3.8411
        78                         -0.1281690              -3.4877
       ...                                ...                  ...
       134                          0.7456707              20.2907
      -------------------------------------------------------------
                  HL-Gap            0.0593596 Eh            1.6153 eV

Wiberg/Mayer (AO) data.
largest (>0.10) Wiberg bond orders for each atom

     #   Z sym  total        # sym  WBO       # sym  WBO       # sym  WBO
 ---------------------------------------------------------------------------
     1   6 C    3.987 --     2 C    1.031    28 H    0.983    27 H    0.965
                            26 H    0.963
     2   6 C    3.871 --     3 N    1.615    25 O    1.074     1 C    1.031
     3   7 N    2.980 --     2 C    1.615     4 N    1.194
     4   7 N    2.996 --     5 C    1.625     3 N    1.194
     5   6 C    3.869 --     4 N    1.625    25 O    1.048     6 C    0.986
     6   6 C    3.923 --     7 O    1.561     8 N    1.295     5 C    0.986
     7   8 O    1.882 --     6 C    1.561     8 N    0.184
     8   7 N    3.380 --     6 C    1.295     9 C    0.929    29 H    0.873
                             7 O    0.184
     9   6 C    3.935 --    10 C    0.987    11 C    0.978    12 C    0.975
                             8 N    0.929
    10   6 C    3.991 --     9 C    0.987    30 H    0.986    32 H    0.984
                            31 H    0.982
    11   6 C    3.991 --    35 H    0.986    33 H    0.984    34 H    0.981
                             9 C    0.978
    12   6 C    3.951 --    13 N    1.443    24 N    1.378     9 C    0.975
    13   7 N    3.013 --    12 C    1.443    14 C    1.175
    14   6 C    3.957 --    20 C    1.354    15 C    1.185    13 N    1.175
    15   6 C    3.796 --    16 O    1.726    14 C    1.185    17 O    0.703
    16   8 O    2.063 --    15 C    1.726
    17   8 O    2.481 --    18 C    0.833    19 C    0.822    15 C    0.703
    18   6 C    3.806 --    36 H    0.980    38 H    0.978    37 H    0.976
                            17 O    0.833
    19   6 C    3.796 --    41 H    0.982    40 H    0.978    39 H    0.961
                            17 O    0.822
    20   6 C    3.887 --    14 C    1.354    21 O    1.144    22 C    1.026
    21   8 O    2.128 --    20 C    1.144    42 H    0.800
    22   6 C    3.929 --    23 O    1.548    24 N    1.225    20 C    1.026
    23   8 O    1.846 --    22 C    1.548    24 N    0.132
    24   7 N    3.019 --    12 C    1.378    22 C    1.225    23 O    0.132
    25   8 O    2.317 --     2 C    1.074     5 C    1.048
    26   1 H    0.997 --     1 C    0.963
    27   1 H    0.997 --     1 C    0.965
    28   1 H    0.999 --     1 C    0.983
    29   1 H    0.964 --     8 N    0.873
    30   1 H    1.004 --    10 C    0.986
    31   1 H    1.011 --    10 C    0.982
    32   1 H    1.015 --    10 C    0.984
    33   1 H    1.008 --    11 C    0.984
    34   1 H    1.010 --    11 C    0.981
    35   1 H    1.003 --    11 C    0.986
    36   1 H    0.998 --    18 C    0.980
    37   1 H    0.999 --    18 C    0.976
    38   1 H    0.997 --    18 C    0.978
    39   1 H    1.031 --    19 C    0.961
    40   1 H    0.997 --    19 C    0.978
    41   1 H    0.994 --    19 C    0.982
    42   1 H    0.850 --    21 O    0.800
 ---------------------------------------------------------------------------

           -------------------------------------------------
          | TOTAL ENERGY              -82.934321995155 Eh   |
          | GRADIENT NORM               0.000786547208 Eh/α |
          | HOMO-LUMO GAP               1.615258021367 eV   |
           -------------------------------------------------

 * finished run on 2023/06/20 at 18:28:24.039
