   * xtb version 6.5.1 (579679a) compiled by 'ehlert@majestix' on 2022-07-11
          program call               : /lustre/hpc/kemi/ree/PhD/git/ReactivityQM/dep/xtb-6.5.1/bin/xtb --gfn 1 /lustre/hpc/kemi/ree/PhD/git/ReactivityQM/calculations/R03/reac02prodN02/conf08/R03_reac02prodN02_conf08_gfn1.xyz --opt --vfukui --chrg 1 --uhf 0 --alpb DMSO

   ID    Z sym.   atoms
    1    6 C      1, 3, 5, 7-10, 12, 14, 15, 18, 19, 22, 23, 25
    2    8 O      2, 4, 13, 20, 24, 26
    3    7 N      6, 11, 16, 17, 21
    4    1 H      27-46

      * Solvation model:               ALPB
        Solvent                        DMSO
        Solvent mass                       7.8130E+01 g/mol
          :  Hamiltonian                  GFN1-xTB          :
 * total energy  :   -86.3231722 Eh     change       -0.3271339E-10 Eh
 * total energy  :   -86.3424535 Eh     change       -0.1928124E-01 Eh
 * total energy  :   -86.3497668 Eh     change       -0.7313335E-02 Eh
 * total energy  :   -86.3513879 Eh     change       -0.1621116E-02 Eh
 * total energy  :   -86.3522537 Eh     change       -0.8657832E-03 Eh
 * total energy  :   -86.3525267 Eh     change       -0.2729998E-03 Eh
 * total energy  :   -86.3527600 Eh     change       -0.2333264E-03 Eh
 * total energy  :   -86.3529807 Eh     change       -0.2206349E-03 Eh
 * total energy  :   -86.3531910 Eh     change       -0.2103546E-03 Eh
 * total energy  :   -86.3533819 Eh     change       -0.1908561E-03 Eh
 * total energy  :   -86.3540290 Eh     change       -0.1200567E-04 Eh
 * total energy  :   -86.3540494 Eh     change       -0.2038183E-04 Eh
 * total energy  :   -86.3540655 Eh     change       -0.1607014E-04 Eh
 * total energy  :   -86.3540790 Eh     change       -0.1355679E-04 Eh
 * total energy  :   -86.3540925 Eh     change       -0.1348284E-04 Eh
 * total energy  :   -86.3541030 Eh     change       -0.1050113E-04 Eh
 * total energy  :   -86.3541114 Eh     change       -0.8420225E-05 Eh
 * total energy  :   -86.3541174 Eh     change       -0.6010845E-05 Eh
 * total energy  :   -86.3541207 Eh     change       -0.3248346E-05 Eh
   *** GEOMETRY OPTIMIZATION CONVERGED AFTER 30 ITERATIONS ***

 final structure:
================
46
 xtb: 6.5.1 (579679a)
C           -1.55659959331487        4.24623509805769        0.06906253711417
O           -1.66174124785933        2.81921729535046       -0.02644363160478
C           -2.88535895891737        2.31952553059197       -0.11712726767286
O           -3.89315255104981        3.00093741679124       -0.11962421397476
C           -2.91912949202923        0.84272039942136       -0.21474073116703
N           -1.72363853021573        0.18292951555234       -0.20479334658390
C           -1.66382082961543       -1.10760729606841       -0.29162604646507
C           -0.24519809091512       -1.69080169870601       -0.28260692328747
C            0.16662100803604       -2.14713294880748       -1.68974806858603
C           -0.03276735993709       -2.76182084479586        0.79410078174098
N            0.60712607211571       -0.53909699187660        0.07157902440820
C            1.90816225144933       -0.47789006520020        0.14069861702942
O            2.61821497575308       -1.54131694257625       -0.08757973957900
C            4.05543816832891       -1.56558863067751       -0.02858504475217
C            2.44536027527178        0.81919216284783        0.48517638276363
N            1.71742313596509        1.87872160637580        0.71440656135067
N            2.56520506624201        2.88109723480768        1.00305517702630
C            3.77416711362658        2.39071396457006        0.93727347942014
C            5.05079013263672        3.09252892567598        1.16717295463398
O            3.75717852012883        1.09106057080689        0.61366475702750
N           -2.79026978889915       -1.87099981554233       -0.40163185745194
C           -2.79743515372798       -3.33369807832201       -0.49239173593201
C           -4.07696248480289       -1.30768367278572       -0.37654330056710
O           -5.06776729447954       -2.01373865031302       -0.41901942597065
C           -4.09934049014255        0.15318095286127       -0.30233317949341
O           -5.30208578505634        0.72126574352593       -0.31186519512686
H           -2.00105801406504        4.71175359002599       -0.81342181288360
H           -2.07153170064726        4.59765547935321        0.96606886946661
H           -0.49411822619236        4.47301413354205        0.12593892805865
H            0.19200900465453       -1.28631581999628       -2.35595398873189
H           -0.53787798134387       -2.87380129208612       -2.08518815946323
H            1.15283378977668       -2.60366158840374       -1.65718556470229
H            1.03214261237978       -2.90548763062934        0.95832013673947
H           -0.49301970531841       -2.44721740164101        1.72929502774152
H           -0.45174018630997       -3.71519581529561        0.48736514194640
H            0.07198193907432        0.33153770036378        0.20787617053193
H            4.33439094475004       -2.58957720770079       -0.27013637789527
H            4.39187923997913       -1.30258025472957        0.97422436282872
H            4.47002734246610       -0.87253107459112       -0.76069978610455
H            5.61732448402124        2.58266591468095        1.94649176937277
H            4.85836608528123        4.12169777916869        1.46154817941072
H            5.64854951481169        3.07570937359352        0.25526464134460
H           -1.92186776892449       -3.68946924480640       -1.01948489235592
H           -3.69076761931707       -3.63088598435704       -1.04217855836603
H           -2.83567696936819       -3.75922754941261        0.50975497424053
H           -5.22226485430091        1.69996511135597       -0.24743362548229

          :  Hamiltonian                  GFN1-xTB          :
         :: total energy             -86.354120694153 Eh    ::
         :: gradient norm              0.000264386845 Eh/a0 ::
         :: HOMO-LUMO gap              1.889778060643 eV    ::
         :: SCC energy               -87.182002881700 Eh    ::
         :: -> Gsolv                  -0.107751380495 Eh    ::
         :: repulsion energy           0.857318000954 Eh    ::

    * Orbital Energies and Occupations

         #    Occupation            Energy/Eh            Energy/eV
      -------------------------------------------------------------
         1        2.0000           -0.9023453             -24.5541
       ...           ...                  ...                  ...
        58        2.0000           -0.5287183             -14.3872
        59        2.0000           -0.5254389             -14.2979
        60        2.0000           -0.5231199             -14.2348
        61        2.0000           -0.5157117             -14.0332
        62        2.0000           -0.5129994             -13.9594
        63        2.0000           -0.5085442             -13.8382
        64        2.0000           -0.5010081             -13.6331
        65        2.0000           -0.4905427             -13.3483
        66        2.0000           -0.4877976             -13.2736
        67        2.0000           -0.4845119             -13.1842
        68        2.0000           -0.4778886             -13.0040
        69        2.0000           -0.4613184             -12.5531
        70        2.0000           -0.4428561             -12.0507 (HOMO)
        71                         -0.3734080             -10.1609 (LUMO)
        72                         -0.3380756              -9.1995
        73                         -0.3035779              -8.2608
        74                         -0.2886458              -7.8545
        75                         -0.2548968              -6.9361
        76                         -0.2539187              -6.9095
        77                         -0.1728826              -4.7044
        78                         -0.1613936              -4.3917
        79                         -0.1590025              -4.3267
        80                         -0.1550168              -4.2182
        81                         -0.1475644              -4.0154
       ...                                ...                  ...
       144                          0.7149650              19.4552
      -------------------------------------------------------------
                  HL-Gap            0.0694481 Eh            1.8898 eV

Wiberg/Mayer (AO) data.
largest (>0.10) Wiberg bond orders for each atom

     #   Z sym  total        # sym  WBO       # sym  WBO       # sym  WBO
 ---------------------------------------------------------------------------
     1   6 C    3.862 --    29 H    0.986    28 H    0.979    27 H    0.979
                             2 O    0.887
     2   8 O    2.215 --     3 C    1.135     1 C    0.887     4 O    0.131
     3   6 C    3.851 --     4 O    1.617     2 O    1.135     5 C    1.016
     4   8 O    1.947 --     3 C    1.617     2 O    0.131
     5   6 C    3.959 --    25 C    1.479     6 N    1.176     3 C    1.016
     6   7 N    3.080 --     7 C    1.559     5 C    1.176
     7   6 C    3.938 --     6 N    1.559    21 N    1.196     8 C    0.974
     8   6 C    3.906 --    10 C    0.982     9 C    0.975     7 C    0.974
                            11 N    0.903
     9   6 C    3.981 --    30 H    0.983    32 H    0.979     8 C    0.975
                            31 H    0.974
    10   6 C    3.982 --    34 H    0.983     8 C    0.982    33 H    0.978
                            35 H    0.978
    11   7 N    3.483 --    12 C    1.467     8 C    0.903    36 H    0.825
                            13 O    0.113
    12   6 C    3.897 --    11 N    1.467    13 O    1.200    15 C    1.081
    13   8 O    2.281 --    12 C    1.200    14 C    0.855    11 N    0.113
    14   6 C    3.823 --    37 H    0.980    39 H    0.975    38 H    0.975
                            13 O    0.855
    15   6 C    3.890 --    16 N    1.547    12 C    1.081    20 O    1.056
    16   7 N    3.033 --    15 C    1.547    17 N    1.256
    17   7 N    2.990 --    18 C    1.549    16 N    1.256
    18   6 C    3.851 --    17 N    1.549    20 O    1.086    19 C    1.040
    19   6 C    3.978 --    18 C    1.040    41 H    0.980    40 H    0.956
                            42 H    0.953
    20   8 O    2.341 --    18 C    1.086    15 C    1.056
    21   7 N    3.504 --     7 C    1.196    23 C    1.091    22 C    0.926
                            24 O    0.135
    22   6 C    3.916 --    43 H    0.976    45 H    0.974    44 H    0.971
                            21 N    0.926
    23   6 C    3.909 --    24 O    1.609    21 N    1.091    25 C    1.062
    24   8 O    1.925 --    23 C    1.609    21 N    0.135
    25   6 C    3.923 --     5 C    1.479    26 O    1.134    23 C    1.062
    26   8 O    2.103 --    25 C    1.134    46 H    0.778
    27   1 H    1.005 --     1 C    0.979
    28   1 H    1.005 --     1 C    0.979
    29   1 H    1.011 --     1 C    0.986
    30   1 H    0.998 --     9 C    0.983
    31   1 H    0.999 --     9 C    0.974
    32   1 H    1.000 --     9 C    0.979
    33   1 H    1.000 --    10 C    0.978
    34   1 H    0.997 --    10 C    0.983
    35   1 H    0.999 --    10 C    0.978
    36   1 H    0.954 --    11 N    0.825
    37   1 H    1.002 --    14 C    0.980
    38   1 H    1.002 --    14 C    0.975
    39   1 H    1.002 --    14 C    0.975
    40   1 H    0.991 --    19 C    0.956
    41   1 H    0.994 --    19 C    0.980
    42   1 H    0.991 --    19 C    0.953
    43   1 H    1.005 --    22 C    0.976
    44   1 H    1.004 --    22 C    0.971
    45   1 H    0.999 --    22 C    0.974
    46   1 H    0.848 --    26 O    0.778
 ---------------------------------------------------------------------------

           -------------------------------------------------
          | TOTAL ENERGY              -86.354120694153 Eh   |
          | GRADIENT NORM               0.000264386845 Eh/α |
          | HOMO-LUMO GAP               1.889778060643 eV   |
           -------------------------------------------------

 * finished run on 2023/06/20 at 15:37:03.349
