   * xtb version 6.5.1 (579679a) compiled by 'ehlert@majestix' on 2022-07-11
          program call               : /lustre/hpc/kemi/ree/PhD/git/ReactivityQM/dep/xtb-6.5.1/bin/xtb --gfn 1 /lustre/hpc/kemi/ree/PhD/git/ReactivityQM/calculations/R01/reac01prodE03/conf11/R01_reac01prodE03_conf11_gfn1.xyz --opt --vfukui --chrg -1 --uhf 0 --alpb DMSO

   ID    Z sym.   atoms
    1    6 C      1, 3, 5, 6, 9, 10
    2    8 O      2, 4, 11
    3    7 N      7, 8
    4    1 H      12-20

      * Solvation model:               ALPB
        Solvent                        DMSO
        Solvent mass                       7.8130E+01 g/mol
          :  Hamiltonian                  GFN1-xTB          :
 * total energy  :   -38.3122347 Eh     change       -0.2336265E-10 Eh
 * total energy  :   -38.3233718 Eh     change       -0.1113714E-01 Eh
 * total energy  :   -38.3268748 Eh     change       -0.3502953E-02 Eh
 * total energy  :   -38.3273998 Eh     change       -0.5250782E-03 Eh
 * total energy  :   -38.3278728 Eh     change       -0.4729685E-03 Eh
 * total energy  :   -38.3281171 Eh     change       -0.2442752E-03 Eh
 * total energy  :   -38.3284230 Eh     change       -0.3059391E-03 Eh
 * total energy  :   -38.3286325 Eh     change       -0.2094838E-03 Eh
 * total energy  :   -38.3287866 Eh     change       -0.1540906E-03 Eh
 * total energy  :   -38.3288534 Eh     change       -0.6681407E-04 Eh
 * total energy  :   -38.3290384 Eh     change       -0.3016728E-04 Eh
 * total energy  :   -38.3290692 Eh     change       -0.3078762E-04 Eh
 * total energy  :   -38.3290961 Eh     change       -0.2686950E-04 Eh
 * total energy  :   -38.3291127 Eh     change       -0.1664118E-04 Eh
 * total energy  :   -38.3291229 Eh     change       -0.1021721E-04 Eh
 * total energy  :   -38.3291301 Eh     change       -0.7200560E-05 Eh
 * total energy  :   -38.3291335 Eh     change       -0.3400549E-05 Eh
 * total energy  :   -38.3291384 Eh     change       -0.4914491E-05 Eh
 * total energy  :   -38.3291418 Eh     change       -0.3403334E-05 Eh
   *** GEOMETRY OPTIMIZATION CONVERGED AFTER 22 ITERATIONS ***

 final structure:
================
20
 xtb: 6.5.1 (579679a)
C           -2.61316372319462        1.50888469130013        0.07106494046741
O           -1.36399758913002        0.91333385355716       -0.25089418688747
C           -1.33400938527812       -0.44640940154701       -0.24395903651738
O           -2.34368038735888       -1.10862242805805       -0.01550201516991
C            0.07799220827205       -1.02268406214333       -0.27725527670928
C            0.13378126557228       -2.41412773017816       -0.91052294900003
N            0.27615127102214       -1.01730479418405        1.17244370510416
N            1.23189047080518       -0.05873715633486        1.39621452587411
C            1.64990674982301        0.41848430697649        0.28632079127833
C            2.69993824151430        1.45146860652779        0.07353125606607
O            1.03131686295290       -0.14076829624724       -0.84164306228570
H           -2.47015116047212        2.58859757524364        0.04766198417940
H           -3.37618161298206        1.22427824271674       -0.66058758833618
H           -2.94870089640223        1.20116218601950        1.06710576958335
H            1.09735877544436       -2.87054632092002       -0.69398339454515
H           -0.66005046836142       -3.03002684016119       -0.49187553521141
H            0.00620730727064       -2.34188211447737       -1.98928691434013
H            3.13491475037338        1.72425477370872        1.03344201421193
H            2.28223947174420        2.34696333081270       -0.39186182154870
H            3.48823684838501        1.07368257738917       -0.58036220621236

          :  Hamiltonian                  GFN1-xTB          :
         :: total energy             -38.329141845470 Eh    ::
         :: gradient norm              0.000428881414 Eh/a0 ::
         :: HOMO-LUMO gap              2.058261849813 eV    ::
         :: SCC energy               -38.635807433627 Eh    ::
         :: -> Gsolv                  -0.104170482604 Eh    ::
         :: repulsion energy           0.315549558829 Eh    ::

    * Orbital Energies and Occupations

         #    Occupation            Energy/Eh            Energy/eV
      -------------------------------------------------------------
         1        2.0000           -0.7920887             -21.5538
       ...           ...                  ...                  ...
        19        2.0000           -0.5036693             -13.7055
        20        2.0000           -0.4985698             -13.5668
        21        2.0000           -0.4935732             -13.4308
        22        2.0000           -0.4884957             -13.2926
        23        2.0000           -0.4756737             -12.9437
        24        2.0000           -0.4681377             -12.7387
        25        2.0000           -0.4608066             -12.5392
        26        2.0000           -0.4578847             -12.4597
        27        2.0000           -0.4196040             -11.4180
        28        2.0000           -0.4134682             -11.2510
        29        2.0000           -0.3890830             -10.5875
        30        2.0000           -0.3626307              -9.8677
        31        2.0000           -0.2894327              -7.8759 (HOMO)
        32                         -0.2137929              -5.8176 (LUMO)
        33                         -0.1707909              -4.6475
        34                         -0.1206938              -3.2842
        35                         -0.1131732              -3.0796
        36                         -0.0981231              -2.6701
        37                         -0.0583611              -1.5881
        38                         -0.0573230              -1.5598
        39                         -0.0469309              -1.2771
        40                         -0.0454265              -1.2361
        41                         -0.0393979              -1.0721
        42                         -0.0344337              -0.9370
       ...                                ...                  ...
        62                          0.6698091              18.2264
      -------------------------------------------------------------
                  HL-Gap            0.0756397 Eh            2.0583 eV

Wiberg/Mayer (AO) data.
largest (>0.10) Wiberg bond orders for each atom

     #   Z sym  total        # sym  WBO       # sym  WBO       # sym  WBO
 ---------------------------------------------------------------------------
     1   6 C    3.903 --    12 H    0.987    13 H    0.981    14 H    0.981
                             2 O    0.926
     2   8 O    2.152 --     3 C    1.043     1 C    0.926     4 O    0.104
     3   6 C    3.815 --     4 O    1.571     2 O    1.043     5 C    0.921
                             7 N    0.177
     4   8 O    1.855 --     3 C    1.571     2 O    0.104
     5   6 C    3.901 --     6 C    0.980     7 N    0.967    11 O    0.929
                             3 C    0.921
     6   6 C    3.996 --    17 H    0.987    15 H    0.986    16 H    0.986
                             5 C    0.980
     7   7 N    2.658 --     8 N    1.162     5 C    0.967     3 C    0.177
                             9 C    0.162
     8   7 N    3.014 --     9 C    1.688     7 N    1.162
     9   6 C    3.879 --     8 N    1.688    10 C    1.018    11 O    0.938
                             7 N    0.162
    10   6 C    3.996 --     9 C    1.018    18 H    0.987    20 H    0.977
                            19 H    0.975
    11   8 O    2.066 --     9 C    0.938     5 C    0.929
    12   1 H    1.017 --     1 C    0.987
    13   1 H    1.015 --     1 C    0.981
    14   1 H    1.014 --     1 C    0.981
    15   1 H    1.018 --     6 C    0.986
    16   1 H    1.017 --     6 C    0.986
    17   1 H    1.009 --     6 C    0.987
    18   1 H    1.009 --    10 C    0.987
    19   1 H    1.008 --    10 C    0.975
    20   1 H    1.007 --    10 C    0.977
 ---------------------------------------------------------------------------

           -------------------------------------------------
          | TOTAL ENERGY              -38.329141845470 Eh   |
          | GRADIENT NORM               0.000428881414 Eh/α |
          | HOMO-LUMO GAP               2.058261849813 eV   |
           -------------------------------------------------

 * finished run on 2023/06/20 at 14:53:18.193
