                         Program Version 5.0.1 -  RELEASE  -
|  1> # ORCA input file
|  2> ! SP r2SCAN-3c CPCM
|  3>
|  4> %maxcore 1875.0
|  5> %pal nprocs 4 end
|  6> %cpcm smd true SMDsolvent "DMSO" end
|  7>
|  8> *xyz 0 1
|  9> C       5.557286   -2.195268    0.257418
| 10> O       4.334583   -1.453188    0.205220
| 11> C       4.298511   -0.426401   -0.632515
| 12> O       5.240446   -0.108221   -1.338104
| 13> C       3.013190    0.308193   -0.629388
| 14> N       2.014332   -0.165129    0.170839
| 15> C       0.873510    0.443948    0.231527
| 16> C      -0.148539   -0.183921    1.170069
| 17> C      -0.182591    0.574834    2.501054
| 18> C       0.233284   -1.649666    1.427828
| 19> N      -1.485362   -0.161084    0.577164
| 20> C      -1.705963   -0.620921   -0.674777
| 21> O      -0.827379   -0.933521   -1.460970
| 22> C      -3.146183   -0.672358   -1.022679
| 23> N      -3.680692   -1.021276   -2.151297
| 24> N      -5.030422   -0.917745   -1.995707
| 25> C      -5.237185   -0.512648   -0.781421
| 26> C      -6.531819   -0.244540   -0.119293
| 27> O      -4.085751   -0.337024   -0.112035
| 28> N       0.634502    1.597993   -0.465097
| 29> C      -0.598309    2.380801   -0.378283
| 30> C       1.556982    2.131844   -1.364039
| 31> O       1.283339    3.129337   -2.016707
| 32> C       2.828796    1.416204   -1.417249
| 33> O       3.751011    1.914760   -2.245388
| 34> H       6.384783   -1.533506    0.522548
| 35> H       5.423934   -2.960323    1.019218
| 36> H       5.757934   -2.654506   -0.713170
| 37> H      -0.876496    0.085538    3.182001
| 38> H      -0.497929    1.606649    2.365945
| 39> H       0.811207    0.568024    2.946431
| 40> H       1.188457   -1.697001    1.947100
| 41> H       0.317016   -2.187116    0.484093
| 42> H      -0.533539   -2.117772    2.041703
| 43> H      -2.266320   -0.027083    1.195544
| 44> H      -6.618727    0.817844    0.108810
| 45> H      -6.588341   -0.794057    0.819594
| 46> H      -7.348456   -0.543411   -0.772140
| 47> H      -1.155657    2.126695    0.513122
| 48> H      -1.208679    2.195355   -1.263012
| 49> H      -0.326153    3.436172   -0.348933
| 50> H       4.577394    1.383495   -2.195788
| 51> **                         ****END OF INPUT****

CARTESIAN COORDINATES (ANGSTROEM)
---------------------------------
  C      5.557286   -2.195268    0.257418
  O      4.334583   -1.453188    0.205220
  C      4.298511   -0.426401   -0.632515
  O      5.240446   -0.108221   -1.338104
  C      3.013190    0.308193   -0.629388
  N      2.014332   -0.165129    0.170839
  C      0.873510    0.443948    0.231527
  C     -0.148539   -0.183921    1.170069
  C     -0.182591    0.574834    2.501054
  C      0.233284   -1.649666    1.427828
  N     -1.485362   -0.161084    0.577164
  C     -1.705963   -0.620921   -0.674777
  O     -0.827379   -0.933521   -1.460970
  C     -3.146183   -0.672358   -1.022679
  N     -3.680692   -1.021276   -2.151297
  N     -5.030422   -0.917745   -1.995707
  C     -5.237185   -0.512648   -0.781421
  C     -6.531819   -0.244540   -0.119293
  O     -4.085751   -0.337024   -0.112035
  N      0.634502    1.597993   -0.465097
  C     -0.598309    2.380801   -0.378283
  C      1.556982    2.131844   -1.364039
  O      1.283339    3.129337   -2.016707
  C      2.828796    1.416204   -1.417249
  O      3.751011    1.914760   -2.245388
  H      6.384783   -1.533506    0.522548
  H      5.423934   -2.960323    1.019218
  H      5.757934   -2.654506   -0.713170
  H     -0.876496    0.085538    3.182001
  H     -0.497929    1.606649    2.365945
  H      0.811207    0.568024    2.946431
  H      1.188457   -1.697001    1.947100
  H      0.317016   -2.187116    0.484093
  H     -0.533539   -2.117772    2.041703
  H     -2.266320   -0.027083    1.195544
  H     -6.618727    0.817844    0.108810
  H     -6.588341   -0.794057    0.819594
  H     -7.348456   -0.543411   -0.772140
  H     -1.155657    2.126695    0.513122
  H     -1.208679    2.195355   -1.263012
  H     -0.326153    3.436172   -0.348933
  H      4.577394    1.383495   -2.195788

 Total Charge           Charge          ....    0
 Multiplicity           Mult            ....    1
 Number of Electrons    NEL             ....  184
 Basis Dimension        Dim             ....  615

ORBITAL ENERGIES
----------------

  NO   OCC          E(Eh)            E(eV)
   0   2.0000     -19.067010      -518.8397
   1   2.0000     -19.009483      -517.2743
   2   2.0000     -18.993912      -516.8506
   3   2.0000     -18.955470      -515.8046
   4   2.0000     -18.938871      -515.3529
   5   2.0000     -18.928203      -515.0626
   6   2.0000     -14.236737      -387.4013
   7   2.0000     -14.206325      -386.5738
   8   2.0000     -14.202782      -386.4773
   9   2.0000     -14.198347      -386.3567
  10   2.0000     -14.159024      -385.2866
  11   2.0000     -10.172735      -276.8142
  12   2.0000     -10.158897      -276.4376
  13   2.0000     -10.148504      -276.1548
  14   2.0000     -10.144365      -276.0422
  15   2.0000     -10.143910      -276.0298
  16   2.0000     -10.124370      -275.4981
  17   2.0000     -10.120587      -275.3952
  18   2.0000     -10.105139      -274.9748
  19   2.0000     -10.088583      -274.5243
  20   2.0000     -10.079680      -274.2820
  21   2.0000     -10.061379      -273.7840
  22   2.0000     -10.045784      -273.3597
  23   2.0000     -10.028703      -272.8949
  24   2.0000     -10.017416      -272.5877
  25   2.0000      -1.156632       -31.4736
  26   2.0000      -1.088365       -29.6159
  27   2.0000      -1.049559       -28.5600
  28   2.0000      -1.028572       -27.9889
  29   2.0000      -1.018206       -27.7068
  30   2.0000      -0.996545       -27.1174
  31   2.0000      -0.976995       -26.5854
  32   2.0000      -0.963975       -26.2311
  33   2.0000      -0.915721       -24.9180
  34   2.0000      -0.886066       -24.1111
  35   2.0000      -0.833043       -22.6682
  36   2.0000      -0.786738       -21.4082
  37   2.0000      -0.743820       -20.2404
  38   2.0000      -0.721854       -19.6427
  39   2.0000      -0.714419       -19.4403
  40   2.0000      -0.688469       -18.7342
  41   2.0000      -0.669056       -18.2059
  42   2.0000      -0.663572       -18.0567
  43   2.0000      -0.640501       -17.4289
  44   2.0000      -0.632531       -17.2120
  45   2.0000      -0.603714       -16.4279
  46   2.0000      -0.587591       -15.9892
  47   2.0000      -0.566449       -15.4139
  48   2.0000      -0.556861       -15.1530
  49   2.0000      -0.541669       -14.7396
  50   2.0000      -0.526921       -14.3383
  51   2.0000      -0.518538       -14.1101
  52   2.0000      -0.496617       -13.5136
  53   2.0000      -0.492421       -13.3994
  54   2.0000      -0.470913       -12.8142
  55   2.0000      -0.465919       -12.6783
  56   2.0000      -0.460462       -12.5298
  57   2.0000      -0.453431       -12.3385
  58   2.0000      -0.452508       -12.3134
  59   2.0000      -0.435835       -11.8597
  60   2.0000      -0.429527       -11.6880
  61   2.0000      -0.417842       -11.3701
  62   2.0000      -0.410898       -11.1811
  63   2.0000      -0.406493       -11.0612
  64   2.0000      -0.403720       -10.9858
  65   2.0000      -0.399265       -10.8645
  66   2.0000      -0.392674       -10.6852
  67   2.0000      -0.386775       -10.5247
  68   2.0000      -0.382133       -10.3984
  69   2.0000      -0.378937       -10.3114
  70   2.0000      -0.372902       -10.1472
  71   2.0000      -0.370200       -10.0736
  72   2.0000      -0.363797        -9.8994
  73   2.0000      -0.360080        -9.7983
  74   2.0000      -0.352327        -9.5873
  75   2.0000      -0.345728        -9.4077
  76   2.0000      -0.345592        -9.4040
  77   2.0000      -0.338089        -9.1999
  78   2.0000      -0.336480        -9.1561
  79   2.0000      -0.327893        -8.9224
  80   2.0000      -0.323948        -8.8151
  81   2.0000      -0.315611        -8.5882
  82   2.0000      -0.286726        -7.8022
  83   2.0000      -0.275872        -7.5068
  84   2.0000      -0.272360        -7.4113
  85   2.0000      -0.268131        -7.2962
  86   2.0000      -0.263492        -7.1700
  87   2.0000      -0.252621        -6.8742
  88   2.0000      -0.248367        -6.7584
  89   2.0000      -0.240007        -6.5309
  90   2.0000      -0.237774        -6.4701
  91   2.0000      -0.206749        -5.6259
  92   0.0000      -0.092716        -2.5229
  93   0.0000      -0.088864        -2.4181
  94   0.0000      -0.036383        -0.9900
  95   0.0000      -0.021478        -0.5845
  96   0.0000       0.009515         0.2589

MULLIKEN ATOMIC CHARGES
-----------------------
   0 C :   -0.312538
   1 O :   -0.183601
   2 C :    0.208498
   3 O :   -0.478559
   4 C :    0.100145
   5 N :   -0.094557
   6 C :    0.068586
   7 C :    0.032990
   8 C :   -0.499686
   9 C :   -0.611958
  10 N :   -0.150567
  11 C :   -0.137678
  12 O :   -0.417191
  13 C :    0.422711
  14 N :   -0.163953
  15 N :   -0.287508
  16 C :    0.399895
  17 C :   -0.633718
  18 O :   -0.057351
  19 N :    0.279646
  20 C :   -0.448052
  21 C :    0.120565
  22 O :   -0.432825
  23 C :    0.052867
  24 O :   -0.358503
  25 H :    0.178957
  26 H :    0.179704
  27 H :    0.180094
  28 H :    0.191605
  29 H :    0.184480
  30 H :    0.199372
  31 H :    0.188095
  32 H :    0.198094
  33 H :    0.182692
  34 H :    0.320081
  35 H :    0.203617
  36 H :    0.199502
  37 H :    0.205305
  38 H :    0.201318
  39 H :    0.207081
  40 H :    0.192095
  41 H :    0.370249
Sum of atomic charges:   -0.0000000

LOEWDIN ATOMIC CHARGES
----------------------
   0 C :   -0.032736
   1 O :   -0.558345
   2 C :    0.408167
   3 O :   -0.464370
   4 C :    0.193826
   5 N :   -0.569376
   6 C :    0.372936
   7 C :    0.109871
   8 C :   -0.339271
   9 C :   -0.334316
  10 N :   -0.593778
  11 C :    0.378782
  12 O :   -0.434610
  13 C :    0.413532
  14 N :   -0.333099
  15 N :   -0.359051
  16 C :    0.380145
  17 C :   -0.316882
  18 O :   -0.391109
  19 N :   -0.628888
  20 C :   -0.068352
  21 C :    0.380512
  22 O :   -0.458678
  23 C :    0.283213
  24 O :   -0.443368
  25 H :    0.184373
  26 H :    0.187922
  27 H :    0.183994
  28 H :    0.175775
  29 H :    0.171757
  30 H :    0.179318
  31 H :    0.177329
  32 H :    0.180172
  33 H :    0.167584
  34 H :    0.301164
  35 H :    0.192980
  36 H :    0.191252
  37 H :    0.191390
  38 H :    0.203500
  39 H :    0.198514
  40 H :    0.205277
  41 H :    0.312942

  Mayer bond orders larger than 0.100000
B(  0-C ,  1-O ) :   0.8241 B(  0-C , 25-H ) :   0.9553 B(  0-C , 26-H ) :   0.9611
B(  0-C , 27-H ) :   0.9541 B(  1-O ,  2-C ) :   1.1983 B(  2-C ,  3-O ) :   1.7304
B(  2-C ,  4-C ) :   1.0690 B(  4-C ,  5-N ) :   1.0199 B(  4-C , 23-C ) :   1.2840
B(  5-N ,  6-C ) :   1.6728 B(  5-N ,  7-C ) :  -0.1007 B(  6-C ,  7-C ) :   0.7775
B(  6-C , 19-N ) :   1.2355 B(  6-C , 23-C ) :   0.1188 B(  7-C ,  8-C ) :   0.9867
B(  7-C ,  9-C ) :   0.9128 B(  7-C , 10-N ) :   0.7635 B(  8-C , 28-H ) :   0.9638
B(  8-C , 29-H ) :   0.9320 B(  8-C , 30-H ) :   0.9684 B(  9-C , 31-H ) :   0.9612
B(  9-C , 32-H ) :   0.9651 B(  9-C , 33-H ) :   0.9712 B( 10-N , 11-C ) :   1.1541
B( 10-N , 34-H ) :   0.8980 B( 11-C , 12-O ) :   1.8844 B( 11-C , 13-C ) :   0.7570
B( 11-C , 15-N ) :   0.1085 B( 12-O , 13-C ) :  -0.1138 B( 13-C , 14-N ) :   1.7385
B( 13-C , 16-C ) :   0.1258 B( 13-C , 18-O ) :   1.0832 B( 14-N , 15-N ) :   1.2639
B( 15-N , 16-C ) :   1.6169 B( 16-C , 17-C ) :   0.8223 B( 16-C , 18-O ) :   1.0664
B( 17-C , 35-H ) :   0.9372 B( 17-C , 36-H ) :   0.9495 B( 17-C , 37-H ) :   0.9893
B( 19-N , 20-C ) :   0.8498 B( 19-N , 21-C ) :   1.0578 B( 20-C , 38-H ) :   0.9300
B( 20-C , 39-H ) :   0.9361 B( 20-C , 40-H ) :   0.9349 B( 21-C , 22-O ) :   1.8881
B( 21-C , 23-C ) :   1.0095 B( 23-C , 24-O ) :   1.1428 B( 24-O , 41-H ) :   0.7741

Dispersion correction           -0.019548928
FINAL SINGLE POINT ENERGY     -1268.663064610473

DIPOLE MOMENT
-------------
                                X             Y             Z
Electronic contribution:      3.07430       3.23836     -13.52518
Nuclear contribution   :     -5.24323      -3.62132      18.80882
                        -----------------------------------------
Total Dipole Moment    :     -2.16892      -0.38296       5.28365
                        -----------------------------------------
Magnitude (a.u.)       :      5.72432
Magnitude (Debye)      :     14.55006

Rotational constants in cm-1:     0.014867     0.003823     0.003530
Rotational constants in MHz :   445.708705   114.613870   105.815360

                             ****ORCA TERMINATED NORMALLY****
TOTAL RUN TIME: 0 days 0 hours 1 minutes 23 seconds 76 msec
