   * xtb version 6.5.1 (579679a) compiled by 'ehlert@majestix' on 2022-07-11
          program call               : /lustre/hpc/kemi/ree/PhD/git/ReactivityQM/dep/xtb-6.5.1/bin/xtb --gfn 1 /lustre/hpc/kemi/ree/PhD/git/ReactivityQM/calculations/R03/reac02/conf12/R03_reac02_conf12_gfn1.xyz --opt --vfukui --chrg 0 --uhf 0 --alpb DMSO

   ID    Z sym.   atoms
    1    6 C      1, 3, 5, 7-10, 12, 14, 17, 18, 21, 22, 24
    2    8 O      2, 4, 13, 19, 23, 25
    3    7 N      6, 11, 15, 16, 20
    4    1 H      26-42

      * Solvation model:               ALPB
        Solvent                        DMSO
        Solvent mass                       7.8130E+01 g/mol
          :  Hamiltonian                  GFN1-xTB          :
 * total energy  :   -82.9998193 Eh     change       -0.1664091E-10 Eh
 * total energy  :   -83.0097572 Eh     change       -0.9937956E-02 Eh
 * total energy  :   -83.0136167 Eh     change       -0.3859452E-02 Eh
 * total energy  :   -83.0146403 Eh     change       -0.1023673E-02 Eh
 * total energy  :   -83.0156387 Eh     change       -0.9983178E-03 Eh
 * total energy  :   -83.0163203 Eh     change       -0.6816591E-03 Eh
 * total energy  :   -83.0168567 Eh     change       -0.5364057E-03 Eh
 * total energy  :   -83.0172040 Eh     change       -0.3473116E-03 Eh
 * total energy  :   -83.0173698 Eh     change       -0.1657274E-03 Eh
 * total energy  :   -83.0174561 Eh     change       -0.8638888E-04 Eh
 * total energy  :   -83.0183922 Eh     change       -0.5927349E-05 Eh
 * total energy  :   -83.0183974 Eh     change       -0.5217560E-05 Eh
 * total energy  :   -83.0184049 Eh     change       -0.7478399E-05 Eh
 * total energy  :   -83.0184117 Eh     change       -0.6815417E-05 Eh
 * total energy  :   -83.0184181 Eh     change       -0.6431379E-05 Eh
 * total energy  :   -83.0184238 Eh     change       -0.5711224E-05 Eh
 * total energy  :   -83.0184323 Eh     change       -0.8450111E-05 Eh
 * total energy  :   -83.0184397 Eh     change       -0.7410383E-05 Eh
 * total energy  :   -83.0184421 Eh     change       -0.2438994E-05 Eh
   *** GEOMETRY OPTIMIZATION CONVERGED AFTER 44 ITERATIONS ***

 final structure:
================
42
 xtb: 6.5.1 (579679a)
C            5.55728601222536       -2.19526761143341        0.25741761741508
O            4.33458253067902       -1.45318849755935        0.20522041303267
C            4.29851129211658       -0.42640063634466       -0.63251517477180
O            5.24044553865799       -0.10822104145345       -1.33810404030296
C            3.01318967528162        0.30819303959783       -0.62938792893663
N            2.01433202080238       -0.16512858286559        0.17083919810105
C            0.87350973912881        0.44394814348328        0.23152670089051
C           -0.14853868940846       -0.18392131190993        1.17006913756248
C           -0.18259126045275        0.57483428399613        2.50105368234890
C            0.23328394911135       -1.64966582528779        1.42782815498970
N           -1.48536244562863       -0.16108362333357        0.57716351094725
C           -1.70596252394203       -0.62092113063656       -0.67477728532359
O           -0.82737871184474       -0.93352126647863       -1.46097017720033
C           -3.14618342044998       -0.67235769018726       -1.02267902242034
N           -3.68069169377032       -1.02127586365049       -2.15129682370096
N           -5.03042163528295       -0.91774458846699       -1.99570697575400
C           -5.23718469151699       -0.51264785129195       -0.78142065764696
C           -6.53181934185757       -0.24454014103373       -0.11929344482191
O           -4.08575091004333       -0.33702402734646       -0.11203544650208
N            0.63450205955105        1.59799336298557       -0.46509687832085
C           -0.59830864780481        2.38080135212111       -0.37828268910451
C            1.55698244403004        2.13184411761403       -1.36403881877721
O            1.28333895131203        3.12933685373598       -2.01670707845087
C            2.82879612569702        1.41620380776731       -1.41724888878338
O            3.75101099505660        1.91476045312562       -2.24538812827740
H            6.38478331694045       -1.53350598060239        0.52254825375828
H            5.42393365906815       -2.96032333998815        1.01921832571180
H            5.75793373217289       -2.65450550156379       -0.71316972992137
H           -0.87649596013680        0.08553830789636        3.18200133673916
H           -0.49792936382105        1.60664870147247        2.36594488516255
H            0.81120700933874        0.56802430305692        2.94643083217281
H            1.18845748498597       -1.69700134785957        1.94710023623273
H            0.31701633287565       -2.18711565618415        0.48409301843174
H           -0.53353932694714       -2.11777171440492        2.04170326016224
H           -2.26632034619862       -0.02708331857214        1.19554369531247
H           -6.61872731804909        0.81784417872318        0.10880951464504
H           -6.58834136114459       -0.79405721086811        0.81959415318982
H           -7.34845639748648       -0.54341101510759       -0.77213975836045
H           -1.15565714055150        2.12669474954767        0.51312151475654
H           -1.20867912716498        2.19535533258961       -1.26301159387118
H           -0.32615328442344        3.43617160384624       -0.34893274925273
H            4.57739372889895        1.38349518287602       -2.19578815105815

          :  Hamiltonian                  GFN1-xTB          :
         :: total energy             -83.018442116571 Eh    ::
         :: gradient norm              0.000361711522 Eh/a0 ::
         :: HOMO-LUMO gap              2.760129365139 eV    ::
         :: SCC energy               -83.799385121504 Eh    ::
         :: -> Gsolv                  -0.063716496016 Eh    ::
         :: repulsion energy           0.807978463547 Eh    ::

    * Orbital Energies and Occupations

         #    Occupation            Energy/Eh            Energy/eV
      -------------------------------------------------------------
         1        2.0000           -0.8670857             -23.5946
       ...           ...                  ...                  ...
        55        2.0000           -0.5067400             -13.7891
        56        2.0000           -0.5019874             -13.6598
        57        2.0000           -0.4997949             -13.6001
        58        2.0000           -0.4881229             -13.2825
        59        2.0000           -0.4824643             -13.1285
        60        2.0000           -0.4750417             -12.9265
        61        2.0000           -0.4686125             -12.7516
        62        2.0000           -0.4644770             -12.6391
        63        2.0000           -0.4584899             -12.4761
        64        2.0000           -0.4541886             -12.3591
        65        2.0000           -0.4479845             -12.1903
        66        2.0000           -0.4421414             -12.0313
        67        2.0000           -0.4254094             -11.5760 (HOMO)
        68                         -0.3239765              -8.8158 (LUMO)
        69                         -0.3137348              -8.5372
        70                         -0.2815858              -7.6623
        71                         -0.2580430              -7.0217
        72                         -0.2413681              -6.5680
        73                         -0.2012275              -5.4757
        74                         -0.1570941              -4.2747
        75                         -0.1422009              -3.8695
        76                         -0.1408355              -3.8323
        77                         -0.1385846              -3.7711
        78                         -0.1316019              -3.5811
       ...                                ...                  ...
       134                          0.7218015              19.6412
      -------------------------------------------------------------
                  HL-Gap            0.1014329 Eh            2.7601 eV

Wiberg/Mayer (AO) data.
largest (>0.10) Wiberg bond orders for each atom

     #   Z sym  total        # sym  WBO       # sym  WBO       # sym  WBO
 ---------------------------------------------------------------------------
     1   6 C    3.867 --    27 H    0.986    26 H    0.979    28 H    0.979
                             2 O    0.893
     2   8 O    2.216 --     3 C    1.134     1 C    0.893     4 O    0.129
     3   6 C    3.847 --     4 O    1.607     2 O    1.134     5 C    1.020
     4   8 O    1.940 --     3 C    1.607     2 O    0.129
     5   6 C    3.965 --    24 C    1.475     6 N    1.191     3 C    1.020
     6   7 N    3.030 --     7 C    1.563     5 C    1.191
     7   6 C    3.931 --     6 N    1.563    20 N    1.178     8 C    0.975
     8   6 C    3.936 --    10 C    0.987     9 C    0.985     7 C    0.975
                            11 N    0.927
     9   6 C    3.989 --     8 C    0.985    31 H    0.983    29 H    0.981
                            30 H    0.979
    10   6 C    3.988 --     8 C    0.987    34 H    0.985    32 H    0.983
                            33 H    0.982
    11   7 N    3.345 --    12 C    1.246     8 C    0.927    35 H    0.891
                            13 O    0.173
    12   6 C    3.917 --    13 O    1.588    11 N    1.246    14 C    0.995
    13   8 O    1.891 --    12 C    1.588    11 N    0.173
    14   6 C    3.873 --    15 N    1.621    19 O    1.047    12 C    0.995
    15   7 N    3.000 --    14 C    1.621    16 N    1.199
    16   7 N    2.981 --    17 C    1.609    15 N    1.199
    17   6 C    3.868 --    16 N    1.609    19 O    1.072    18 C    1.032
    18   6 C    3.986 --    17 C    1.032    38 H    0.982    37 H    0.965
                            36 H    0.960
    19   8 O    2.316 --    17 C    1.072    14 C    1.047
    20   7 N    3.510 --     7 C    1.178    22 C    1.113    21 C    0.932
                            23 O    0.137
    21   6 C    3.925 --    39 H    0.979    41 H    0.976    40 H    0.975
                            20 N    0.932
    22   6 C    3.913 --    23 O    1.579    20 N    1.113    24 C    1.072
    23   8 O    1.895 --    22 C    1.579    20 N    0.137
    24   6 C    3.922 --     5 C    1.475    25 O    1.118    22 C    1.072
    25   8 O    2.087 --    24 C    1.118    42 H    0.782
    26   1 H    1.006 --     1 C    0.979
    27   1 H    1.010 --     1 C    0.986
    28   1 H    1.006 --     1 C    0.979
    29   1 H    0.996 --     9 C    0.981
    30   1 H    1.000 --     9 C    0.979
    31   1 H    1.001 --     9 C    0.983
    32   1 H    1.013 --    10 C    0.983
    33   1 H    1.010 --    10 C    0.982
    34   1 H    1.001 --    10 C    0.985
    35   1 H    0.934 --    11 N    0.891
    36   1 H    0.996 --    18 C    0.960
    37   1 H    0.996 --    18 C    0.965
    38   1 H    0.998 --    18 C    0.982
    39   1 H    1.010 --    21 C    0.979
    40   1 H    1.003 --    21 C    0.975
    41   1 H    1.007 --    21 C    0.976
    42   1 H    0.854 --    25 O    0.782
 ---------------------------------------------------------------------------

           -------------------------------------------------
          | TOTAL ENERGY              -83.018442116571 Eh   |
          | GRADIENT NORM               0.000361711522 Eh/α |
          | HOMO-LUMO GAP               2.760129365139 eV   |
           -------------------------------------------------

 * finished run on 2023/06/20 at 15:12:23.809
