   * xtb version 6.5.1 (579679a) compiled by 'ehlert@majestix' on 2022-07-11
          program call               : /lustre/hpc/kemi/ree/PhD/git/ReactivityQM/dep/xtb-6.5.1/bin/xtb --gfn 1 /lustre/hpc/kemi/ree/PhD/git/ReactivityQM/calculations/R02oxygendeprot/reac01prodE05/conf13/R02oxygendeprot_reac01prodE05_conf13_gfn1.xyz --opt --vfukui --chrg -2 --uhf 0 --alpb DMSO

   ID    Z sym.   atoms
    1    6 C      1, 3, 5, 6, 8, 11-14, 16, 18, 21, 22, 25
    2    8 O      2, 4, 7, 9, 17, 23
    3    7 N      10, 15, 19, 20, 24
    4    1 H      26-42

      * Solvation model:               ALPB
        Solvent                        DMSO
        Solvent mass                       7.8130E+01 g/mol
          :  Hamiltonian                  GFN1-xTB          :
 * total energy  :   -83.5565489 Eh     change       -0.5992717E-10 Eh
 * total energy  :   -83.5677140 Eh     change       -0.1116504E-01 Eh
 * total energy  :   -83.5723467 Eh     change       -0.4632730E-02 Eh
 * total energy  :   -83.5735056 Eh     change       -0.1158956E-02 Eh
 * total energy  :   -83.5745625 Eh     change       -0.1056814E-02 Eh
 * total energy  :   -83.5751227 Eh     change       -0.5602596E-03 Eh
 * total energy  :   -83.5755253 Eh     change       -0.4025776E-03 Eh
 * total energy  :   -83.5757814 Eh     change       -0.2561283E-03 Eh
 * total energy  :   -83.5759533 Eh     change       -0.1719067E-03 Eh
 * total energy  :   -83.5760901 Eh     change       -0.1367952E-03 Eh
 * total energy  :   -83.5874670 Eh     change       -0.3399331E-04 Eh
 * total energy  :   -83.5875000 Eh     change       -0.3306354E-04 Eh
 * total energy  :   -83.5875223 Eh     change       -0.2225310E-04 Eh
 * total energy  :   -83.5875378 Eh     change       -0.1552665E-04 Eh
 * total energy  :   -83.5875498 Eh     change       -0.1194545E-04 Eh
 * total energy  :   -83.5875597 Eh     change       -0.9983781E-05 Eh
 * total energy  :   -83.5875679 Eh     change       -0.8151793E-05 Eh
 * total energy  :   -83.5875740 Eh     change       -0.6078388E-05 Eh
 * total energy  :   -83.5875783 Eh     change       -0.4313574E-05 Eh
   *** GEOMETRY OPTIMIZATION CONVERGED AFTER 121 ITERATIONS ***

 final structure:
================
42
 xtb: 6.5.1 (579679a)
C            0.66533994086656        3.32421232161959        0.56122475008148
O            0.92307602397426        1.97439208326171        0.23691451979640
C            2.04816307737696        1.41520282241347        0.85220928314413
O            2.70485600838040        2.11579704775126        1.62754094901955
C            2.26689575166311        0.06804048880090        0.45957580306615
C            3.29308660289309       -0.75476825379335        0.97563211714183
O            4.14289309990482       -0.43086831311718        1.83956610881068
C            3.28543028301269       -2.18999632645857        0.46258361794874
O            4.29600485107708       -2.92517386579549        0.46038733663424
N            2.08458128422163       -2.66346641962671        0.07120939808764
C            0.96525669982836       -1.84969834056385       -0.34224828882208
C           -0.22189618185206       -1.95994288884144        0.63879455177976
C            0.16337233813601       -1.89510168887567        2.13534519570020
C           -0.95707073110483       -3.28273434458962        0.35671517450787
N           -1.10630391652265       -0.83369398044308        0.31872978855900
C           -2.30028009759410       -0.59392370043812        0.87106237285723
O           -2.85760922926960       -1.30137897143199        1.72086983372673
C           -2.95909943311015        0.63049224556876        0.36823884058411
N           -4.11223460522103        1.11506237269139        0.75661765760915
N           -4.33113383972824        2.24700498183560        0.02099033939021
C           -3.31177066285704        2.38636056997864       -0.76541951014659
C           -3.08667451155683        3.46270179413209       -1.75773301659844
O           -2.40366400859189        1.40621053367500       -0.60215111538514
N            1.36402817658350       -0.46872609356653       -0.54926711161338
C            1.90382351613474       -0.28310959885395       -1.90706178711377
H            1.49772283296422        3.97206321613130        0.26011231601954
H            0.49636878096979        3.45466286918624        1.63804626556400
H           -0.23368132039530        3.62138461289046        0.01865002733505
H            2.07812050340817       -3.62340086101616       -0.23786663151628
H           -0.71356350430261       -2.03164869451194        2.76857397623754
H            0.87793349732327       -2.68860384342658        2.35425270925224
H            0.62059865492381       -0.93149586497792        2.36440552908009
H           -0.28055356144952       -4.11593976362309        0.54383458975590
H           -1.25994786200821       -3.31090039596303       -0.68980604456805
H           -1.83864560868289       -3.40104098917621        0.98698353617301
H           -0.71110882923849       -0.15476515556133       -0.32971638139591
H           -3.92860356986912        4.14994892179259       -1.74265309961907
H           -2.17176334803963        4.00766242664330       -1.52367575164215
H           -2.98174550887553        3.03958748578169       -2.75640645319695
H            1.19162370231541       -0.70495615268858       -2.61807427300922
H            2.87648467233577       -0.77948464132481       -2.04222424717532
H            2.02169303206242        0.78403435448890       -2.10902987610196

          :  Hamiltonian                  GFN1-xTB          :
         :: total energy             -83.587578292704 Eh    ::
         :: gradient norm              0.000335844736 Eh/a0 ::
         :: HOMO-LUMO gap              0.121763683348 eV    ::
         :: SCC energy               -84.306240771031 Eh    ::
         :: -> Gsolv                  -0.272646283654 Eh    ::
         :: repulsion energy           0.747905668584 Eh    ::

    * Orbital Energies and Occupations

         #    Occupation            Energy/Eh            Energy/eV
      -------------------------------------------------------------
         1        2.0000           -0.8327170             -22.6594
       ...           ...                  ...                  ...
        56        2.0000           -0.4365940             -11.8803
        57        2.0000           -0.4329080             -11.7800
        58        2.0000           -0.4279875             -11.6461
        59        2.0000           -0.4271509             -11.6234
        60        2.0000           -0.4135574             -11.2535
        61        2.0000           -0.4113719             -11.1940
        62        2.0000           -0.4023344             -10.9481
        63        2.0000           -0.4001635             -10.8890
        64        2.0000           -0.3798998             -10.3376
        65        2.0000           -0.3548121              -9.6549
        66        2.0000           -0.3361262              -9.1465
        67        2.0000           -0.3191014              -8.6832
        68        1.8267           -0.2804452              -7.6313 (HOMO)
        69        0.1733           -0.2759705              -7.5095 (LUMO)
        70                         -0.2317106              -6.3052
        71                         -0.2246994              -6.1144
        72                         -0.1608208              -4.3762
        73                         -0.1597090              -4.3459
        74                         -0.1370072              -3.7282
        75                         -0.1080631              -2.9405
        76                         -0.0982009              -2.6722
        77                         -0.0918709              -2.4999
        78                         -0.0839350              -2.2840
        79                         -0.0769526              -2.0940
       ...                                ...                  ...
       134                          0.7712461              20.9867
      -------------------------------------------------------------
                  HL-Gap            0.0044747 Eh            0.1218 eV

Wiberg/Mayer (AO) data.
largest (>0.10) Wiberg bond orders for each atom

     #   Z sym  total        # sym  WBO       # sym  WBO       # sym  WBO
 ---------------------------------------------------------------------------
     1   6 C    3.917 --    28 H    0.984    26 H    0.980    27 H    0.980
                             2 O    0.947
     2   8 O    2.102 --     3 C    0.957     1 C    0.947
     3   6 C    3.852 --     4 O    1.518     5 C    1.246     2 O    0.957
     4   8 O    1.818 --     3 C    1.518
     5   6 C    3.890 --     6 C    1.308     3 C    1.246    24 N    0.967
                             7 O    0.127
     6   6 C    3.932 --     7 O    1.486     5 C    1.308     8 C    0.949
     7   8 O    1.782 --     6 C    1.486     5 C    0.127
     8   6 C    3.883 --     9 O    1.478    10 N    1.272     6 C    0.949
     9   8 O    1.754 --     8 C    1.478    10 N    0.155
    10   7 N    3.375 --     8 C    1.272    11 C    0.941    29 H    0.918
                             9 O    0.155
    11   6 C    3.196 --    24 N    0.967    12 C    0.956    10 N    0.941
    12   6 C    3.899 --    14 C    0.988    13 C    0.975    11 C    0.956
                            15 N    0.912
    13   6 C    3.986 --    31 H    0.986    30 H    0.985    32 H    0.984
                            12 C    0.975
    14   6 C    3.992 --    12 C    0.988    34 H    0.987    33 H    0.986
                            35 H    0.984
    15   7 N    3.362 --    16 C    1.298    12 C    0.912    36 H    0.884
                            17 O    0.176
    16   6 C    3.883 --    17 O    1.494    15 N    1.298    18 C    1.015
    17   8 O    1.797 --    16 C    1.494    15 N    0.176
    18   6 C    3.789 --    19 N    1.559    23 O    1.025    16 C    1.015
    19   7 N    2.902 --    18 C    1.559    20 N    1.187
    20   7 N    2.978 --    21 C    1.623    19 N    1.187
    21   6 C    3.854 --    20 N    1.623    23 O    1.067    22 C    1.028
    22   6 C    3.991 --    21 C    1.028    37 H    0.984    39 H    0.967
                            38 H    0.966
    23   8 O    2.274 --    21 C    1.067    18 C    1.025
    24   7 N    3.086 --    25 C    0.972     5 C    0.967    11 C    0.967
    25   6 C    3.985 --    40 H    0.989    42 H    0.988    41 H    0.981
                            24 N    0.972
    26   1 H    1.019 --     1 C    0.980
    27   1 H    1.020 --     1 C    0.980
    28   1 H    1.022 --     1 C    0.984
    29   1 H    0.983 --    10 N    0.918
    30   1 H    1.015 --    13 C    0.985
    31   1 H    1.014 --    13 C    0.986
    32   1 H    1.019 --    13 C    0.984
    33   1 H    1.010 --    14 C    0.986
    34   1 H    1.022 --    14 C    0.987
    35   1 H    1.017 --    14 C    0.984
    36   1 H    0.989 --    15 N    0.884
    37   1 H    1.002 --    22 C    0.984
    38   1 H    1.002 --    22 C    0.966
    39   1 H    0.999 --    22 C    0.967
    40   1 H    1.037 --    25 C    0.989
    41   1 H    1.013 --    25 C    0.981
    42   1 H    1.025 --    25 C    0.988
 ---------------------------------------------------------------------------

           -------------------------------------------------
          | TOTAL ENERGY              -83.587578292704 Eh   |
          | GRADIENT NORM               0.000335844736 Eh/α |
          | HOMO-LUMO GAP               0.121763683348 eV   |
           -------------------------------------------------

 * finished run on 2023/06/21 at 17:06:06.121
