   * xtb version 6.5.1 (579679a) compiled by 'ehlert@majestix' on 2022-07-11
          program call               : /lustre/hpc/kemi/ree/PhD/git/ReactivityQM/dep/xtb-6.5.1/bin/xtb --gfn 1 /lustre/hpc/kemi/ree/PhD/git/ReactivityQM/calculations/R02/reac01prodE07/conf07/R02_reac01prodE07_conf07_gfn1.xyz --opt --vfukui --chrg -1 --uhf 0 --alpb DMSO

   ID    Z sym.   atoms
    1    6 C      1, 3, 5, 7-10, 12, 14, 15, 18, 19, 22, 24
    2    8 O      2, 4, 13, 20, 23, 25
    3    7 N      6, 11, 16, 17, 21
    4    1 H      26-43

      * Solvation model:               ALPB
        Solvent                        DMSO
        Solvent mass                       7.8130E+01 g/mol
          :  Hamiltonian                  GFN1-xTB          :
 * total energy  :   -83.8212121 Eh     change       -0.6167511E-11 Eh
 * total energy  :   -83.8333804 Eh     change       -0.1216827E-01 Eh
 * total energy  :   -83.8385742 Eh     change       -0.5193790E-02 Eh
 * total energy  :   -83.8395298 Eh     change       -0.9556478E-03 Eh
 * total energy  :   -83.8402469 Eh     change       -0.7170777E-03 Eh
 * total energy  :   -83.8405416 Eh     change       -0.2946668E-03 Eh
 * total energy  :   -83.8407251 Eh     change       -0.1834690E-03 Eh
 * total energy  :   -83.8408327 Eh     change       -0.1076143E-03 Eh
 * total energy  :   -83.8409009 Eh     change       -0.6821037E-04 Eh
 * total energy  :   -83.8409587 Eh     change       -0.5777762E-04 Eh
 * total energy  :   -83.8451564 Eh     change       -0.9290052E-05 Eh
 * total energy  :   -83.8451655 Eh     change       -0.9131210E-05 Eh
 * total energy  :   -83.8451745 Eh     change       -0.8918292E-05 Eh
 * total energy  :   -83.8451832 Eh     change       -0.8698199E-05 Eh
 * total energy  :   -83.8451912 Eh     change       -0.8079001E-05 Eh
 * total energy  :   -83.8451988 Eh     change       -0.7579636E-05 Eh
 * total energy  :   -83.8452055 Eh     change       -0.6668181E-05 Eh
 * total energy  :   -83.8452112 Eh     change       -0.5724005E-05 Eh
 * total energy  :   -83.8452161 Eh     change       -0.4852131E-05 Eh
   *** GEOMETRY OPTIMIZATION CONVERGED AFTER 91 ITERATIONS ***

 final structure:
================
43
 xtb: 6.5.1 (579679a)
C           -4.99068869392657       -2.37955664741632        2.28782963899765
O           -3.97385388176361       -1.84145110301570        1.44816081076272
C           -3.80931963203511       -2.45248226898603        0.25577532856416
O           -4.51108328452448       -3.41015177828590       -0.07938831112651
C           -2.75451999964859       -1.88799049300746       -0.56672785831436
N           -2.05080583971183       -0.81674734616148       -0.05893239409637
C           -1.10847162237559       -0.30028342264428       -0.77154036844043
C           -0.33308458657213        0.89950375562309       -0.27490059160666
C           -0.33699748838669        0.92439824332486        1.25934376560925
C           -0.99534926837602        2.16213468060754       -0.84537248372642
N            1.04006115389152        0.76766191389784       -0.81060243138174
C            1.95652084797629        1.78866169091730       -0.40005027478210
O            1.80727136350235        3.03566719652216       -0.99358280710106
C            2.86548685264250        3.45665450171496       -1.85080783079540
C            3.03649512699980        1.48617191140365        0.39159046424194
N            4.06952983323237        2.27538149809837        0.74795281977498
N            4.87932003349390        1.50072931122372        1.54721557440908
C            4.34110753575233        0.33602298941594        1.64544697347468
C            4.85422968614755       -0.83952556799624        2.39449127933801
O            3.16724919468949        0.22873438699518        0.95139463251449
N           -0.78656829207087       -0.76582826847980       -2.01380818681997
C           -1.41544721905333       -1.84339152205489       -2.63417632046008
O           -1.05675219271650       -2.20422830291438       -3.75625641550701
C           -2.46322049350936       -2.41471471479214       -1.82569737637329
O           -3.13675310560159       -3.46648074071950       -2.34631387644769
H           -5.00865209472349       -1.77184208402905        3.19110909275410
H           -4.76618665051430       -3.41962247224265        2.54100549520933
H           -5.96281395844394       -2.33688530284247        1.78844586661919
H           -1.36357103315737        0.92601771240496        1.62364625628262
H            0.17415642279495        1.81560437065784        1.62096649466083
H            0.17180372125945        0.04231194245978        1.64699538919995
H           -0.54701563392121        3.05605357538193       -0.41532324084509
H           -0.86598351826597        2.18986565541523       -1.92671562852218
H           -2.06009138697405        2.15688807106985       -0.61321710354991
H            1.41531926807462       -0.12247863634455       -0.48532824933808
H            3.80509186799925        3.55688099009804       -1.29146631041426
H            3.01349279121796        2.74977850685898       -2.67625631718436
H            2.58011207939196        4.42949864407330       -2.25492975653648
H            5.03255013485771       -1.67493457520351        1.71614396314301
H            4.12994575081031       -1.16363540342521        3.14267681245415
H            5.78642094589471       -0.57475363671786        2.88887418878277
H           -0.01259772250621       -0.33322929149239       -2.50069674068230
H           -3.81633801183249       -3.76440896939287       -1.69697097274630

          :  Hamiltonian                  GFN1-xTB          :
         :: total energy             -83.845216054085 Eh    ::
         :: gradient norm              0.000182264081 Eh/a0 ::
         :: HOMO-LUMO gap              0.088146019468 eV    ::
         :: SCC energy               -84.592867596168 Eh    ::
         :: -> Gsolv                  -0.101577510656 Eh    ::
         :: repulsion energy           0.773797955656 Eh    ::

    * Orbital Energies and Occupations

         #    Occupation            Energy/Eh            Energy/eV
      -------------------------------------------------------------
         1        2.0000           -0.8138430             -22.1458
       ...           ...                  ...                  ...
        56        2.0000           -0.4731607             -12.8754
        57        2.0000           -0.4589768             -12.4894
        58        2.0000           -0.4539621             -12.3529
        59        2.0000           -0.4444091             -12.0930
        60        2.0000           -0.4396917             -11.9646
        61        2.0000           -0.4285203             -11.6606
        62        2.0000           -0.4241959             -11.5430
        63        2.0000           -0.4178749             -11.3710
        64        2.0000           -0.4161789             -11.3248
        65        2.0000           -0.3989290             -10.8554
        66        2.0000           -0.3981712             -10.8348
        67        2.0000           -0.3921393             -10.6707
        68        1.6923           -0.3051573              -8.3038 (HOMO)
        69        0.3077           -0.3019180              -8.2156 (LUMO)
        70                         -0.2517476              -6.8504
        71                         -0.2120484              -5.7701
        72                         -0.2048245              -5.5736
        73                         -0.1617301              -4.4009
        74                         -0.1279268              -3.4811
        75                         -0.1267972              -3.4503
        76                         -0.1220307              -3.3206
        77                         -0.1133905              -3.0855
        78                         -0.1077146              -2.9311
        79                         -0.1060798              -2.8866
       ...                                ...                  ...
       136                          0.7112495              19.3541
      -------------------------------------------------------------
                  HL-Gap            0.0032393 Eh            0.0881 eV

Wiberg/Mayer (AO) data.
largest (>0.10) Wiberg bond orders for each atom

     #   Z sym  total        # sym  WBO       # sym  WBO       # sym  WBO
 ---------------------------------------------------------------------------
     1   6 C    3.887 --    26 H    0.987    28 H    0.980    27 H    0.980
                             2 O    0.914
     2   8 O    2.149 --     3 C    1.066     1 C    0.914     4 O    0.107
     3   6 C    3.763 --     4 O    1.528     5 C    1.099     2 O    1.066
     4   8 O    1.843 --     3 C    1.528     2 O    0.107
     5   6 C    3.872 --    24 C    1.372     6 N    1.159     3 C    1.099
     6   7 N    3.005 --     7 C    1.591     5 C    1.159
     7   6 C    3.912 --     6 N    1.591    21 N    1.161     8 C    0.983
     8   6 C    3.954 --     9 C    0.990     7 C    0.983    10 C    0.981
                            11 N    0.943
     9   6 C    3.993 --     8 C    0.990    30 H    0.985    31 H    0.985
                            29 H    0.984
    10   6 C    3.993 --    34 H    0.987    33 H    0.985    32 H    0.981
                             8 C    0.981
    11   7 N    3.040 --    12 C    0.994     8 C    0.943    35 H    0.934
    12   6 C    3.577 --    15 C    1.421    11 N    0.994    13 O    0.959
    13   8 O    2.018 --    12 C    0.959    14 C    0.927
    14   6 C    3.907 --    38 H    0.986    37 H    0.983    36 H    0.979
                            13 O    0.927
    15   6 C    3.859 --    12 C    1.421    16 N    1.313    20 O    0.970
    16   7 N    2.717 --    15 C    1.313    17 N    1.160
    17   7 N    2.980 --    18 C    1.660    16 N    1.160
    18   6 C    3.829 --    17 N    1.660    19 C    1.023    20 O    1.010
    19   6 C    3.994 --    18 C    1.023    41 H    0.986    40 H    0.972
                            39 H    0.972
    20   8 O    2.189 --    18 C    1.010    15 C    0.970
    21   7 N    3.385 --     7 C    1.161    22 C    1.079    42 H    0.886
                            23 O    0.114
    22   6 C    3.857 --    23 O    1.529    24 C    1.134    21 N    1.079
    23   8 O    1.799 --    22 C    1.529    21 N    0.114
    24   6 C    3.787 --     5 C    1.372    22 C    1.134    25 O    1.077
    25   8 O    2.018 --    24 C    1.077    43 H    0.787
    26   1 H    1.014 --     1 C    0.987
    27   1 H    1.010 --     1 C    0.980
    28   1 H    1.010 --     1 C    0.980
    29   1 H    1.015 --     9 C    0.984
    30   1 H    1.009 --     9 C    0.985
    31   1 H    1.007 --     9 C    0.985
    32   1 H    1.013 --    10 C    0.981
    33   1 H    1.010 --    10 C    0.985
    34   1 H    1.006 --    10 C    0.987
    35   1 H    0.971 --    11 N    0.934
    36   1 H    1.036 --    14 C    0.979
    37   1 H    1.012 --    14 C    0.983
    38   1 H    1.018 --    14 C    0.986
    39   1 H    1.002 --    19 C    0.972
    40   1 H    1.002 --    19 C    0.972
    41   1 H    1.005 --    19 C    0.986
    42   1 H    0.955 --    21 N    0.886
    43   1 H    0.869 --    25 O    0.787
 ---------------------------------------------------------------------------

           -------------------------------------------------
          | TOTAL ENERGY              -83.845216054085 Eh   |
          | GRADIENT NORM               0.000182264081 Eh/α |
          | HOMO-LUMO GAP               0.088146019468 eV   |
           -------------------------------------------------

 * finished run on 2023/06/20 at 15:03:39.112
