   * xtb version 6.5.1 (579679a) compiled by 'ehlert@majestix' on 2022-07-11
          program call               : /lustre/hpc/kemi/ree/PhD/git/ReactivityQM/dep/xtb-6.5.1/bin/xtb --gfn 1 /lustre/hpc/kemi/ree/PhD/git/ReactivityQM/calculations/RaltegravirCLI/reac02prodN17/conf10/RaltegravirCLI_reac02prodN17_conf10_gfn1.xyz --opt --vfukui --chrg 1 --uhf 0 --alpb DMSO

   ID    Z sym.   atoms
    1    6 C      1, 3, 4, 6, 7, 10-14, 16, 17, 19-22, 25
    2    8 O      2, 5, 8
    3    7 N      9, 18, 23, 24
    4    9 F      15
    5    1 H      26-47

      * Solvation model:               ALPB
        Solvent                        DMSO
        Solvent mass                       7.8130E+01 g/mol
          :  Hamiltonian                  GFN1-xTB          :
 * total energy  :   -79.4968262 Eh     change       -0.1068656E-10 Eh
 * total energy  :   -79.5121242 Eh     change       -0.1529803E-01 Eh
 * total energy  :   -79.5173649 Eh     change       -0.5240693E-02 Eh
 * total energy  :   -79.5183768 Eh     change       -0.1011875E-02 Eh
 * total energy  :   -79.5191325 Eh     change       -0.7557732E-03 Eh
 * total energy  :   -79.5194833 Eh     change       -0.3507648E-03 Eh
 * total energy  :   -79.5197829 Eh     change       -0.2995442E-03 Eh
 * total energy  :   -79.5200020 Eh     change       -0.2191543E-03 Eh
 * total energy  :   -79.5201129 Eh     change       -0.1108560E-03 Eh
 * total energy  :   -79.5201815 Eh     change       -0.6859681E-04 Eh
 * total energy  :   -79.5208789 Eh     change       -0.1640984E-04 Eh
 * total energy  :   -79.5209029 Eh     change       -0.2403320E-04 Eh
 * total energy  :   -79.5209126 Eh     change       -0.9709146E-05 Eh
 * total energy  :   -79.5209370 Eh     change       -0.2432529E-04 Eh
 * total energy  :   -79.5209442 Eh     change       -0.7221788E-05 Eh
 * total energy  :   -79.5209523 Eh     change       -0.8102369E-05 Eh
 * total energy  :   -79.5209581 Eh     change       -0.5841889E-05 Eh
 * total energy  :   -79.5209634 Eh     change       -0.5285461E-05 Eh
 * total energy  :   -79.5209678 Eh     change       -0.4427002E-05 Eh
   *** GEOMETRY OPTIMIZATION CONVERGED AFTER 30 ITERATIONS ***

 final structure:
================
47
 xtb: 6.5.1 (579679a)
C           -2.76216964667702       -2.45845060053174        3.14660985477145
O           -1.92875454469497       -2.48885322705028        1.96559080190537
C           -1.62365217982463       -1.37231028787191        1.30403894051812
C           -0.29647278757734       -0.91545011603061        1.32540508969495
O            0.61842051519175       -1.58526811705738        2.03194384934542
C            0.01133663730814        0.23548267579121        0.60253334050958
C            1.35696006166078        0.92245336629228        0.48146235427217
O            1.43991907316459        2.00244822441525       -0.08175355227093
N            2.40229418149965        0.27934357736205        1.01733122443292
C            3.74583269863083        0.85598529684412        0.95521492684830
C            4.49624314402367        0.34248116692472       -0.25490016062005
C            4.13204755282084        0.76518103482652       -1.53255544519627
C            4.80718775754264        0.29495363222472       -2.64918084605061
C            5.84798763269946       -0.59728375624387       -2.46015338341499
F            6.50576056742232       -1.05625690091349       -3.53591793708235
C            6.23673491339017       -1.03492645575417       -1.20741828720535
C            5.54732820643080       -0.55736638258486       -0.10075276837013
N           -0.96948942857759        0.86474109686892       -0.04979837948449
C           -2.20156463090247        0.42369663503821       -0.09426303041804
C           -3.18161548514995        1.25885281977911       -0.89986395285097
C           -3.20685091825282        0.72760511168099       -2.34215892307116
C           -2.70614129028183        2.72258739923079       -0.89738369892941
N           -4.51307529456770        1.16438067827533       -0.32103323440423
N           -2.54179094512069       -0.73852167965248        0.54041998972146
C           -3.85609752778135       -1.36772495322509        0.38072143381756
H           -2.98107207638446       -3.49994583143373        3.37328012658534
H           -2.20767024051330       -1.99637088787024        3.96529656818504
H           -3.68487486879150       -1.90853409658729        2.96249005669756
H            0.24900716295848       -2.38294470766946        2.44339766532287
H            2.30375296023054       -0.62307062264803        1.44691813924321
H            4.26563037132123        0.58402900016860        1.87608831607196
H            3.63974008521240        1.94448208219583        0.90604022868485
H            3.31456074378289        1.46592577120737       -1.65520063305747
H            4.53383565650240        0.61232344814943       -3.64729270179046
H            7.05611539642233       -1.73366212316861       -1.10023806891010
H            5.83369252933368       -0.88936690654171        0.89000671659927
H           -3.57821328164730       -0.29478324461101       -2.37393128758573
H           -2.20355806504654        0.75202608913818       -2.76577057064381
H           -3.86216912520892        1.35582866338363       -2.94331563167449
H           -3.43094164956510        3.33051303652118       -1.43534400064490
H           -1.73385512745138        2.81056431229709       -1.38067284815053
H           -2.62740195711150        3.08716672780876        0.12547572867021
H           -4.54341097001336        1.67242428857481        0.55243495379560
H           -5.18640677462556        1.58084175984832       -0.94982100464599
H           -4.20476968865337       -1.20963375903603       -0.63426162830292
H           -3.75220148930175       -2.43162967566935        0.57821173328525
H           -4.56016885384608       -0.91396256269101        1.07348093579882

          :  Hamiltonian                  GFN1-xTB          :
         :: total energy             -79.520967828994 Eh    ::
         :: gradient norm              0.000471881892 Eh/a0 ::
         :: HOMO-LUMO gap              1.619624152558 eV    ::
         :: SCC energy               -80.416089446732 Eh    ::
         :: -> Gsolv                  -0.110870421587 Eh    ::
         :: repulsion energy           0.924782567620 Eh    ::

    * Orbital Energies and Occupations

         #    Occupation            Energy/Eh            Energy/eV
      -------------------------------------------------------------
         1        2.0000           -0.8836226             -24.0446
       ...           ...                  ...                  ...
        55        2.0000           -0.5178564             -14.0916
        56        2.0000           -0.5128349             -13.9549
        57        2.0000           -0.5103589             -13.8876
        58        2.0000           -0.5088497             -13.8465
        59        2.0000           -0.5034206             -13.6988
        60        2.0000           -0.4870586             -13.2535
        61        2.0000           -0.4801888             -13.0666
        62        2.0000           -0.4783124             -13.0155
        63        2.0000           -0.4695020             -12.7758
        64        2.0000           -0.4566607             -12.4264
        65        2.0000           -0.4556476             -12.3988
        66        2.0000           -0.4425277             -12.0418
        67        2.0000           -0.4315030             -11.7418 (HOMO)
        68                         -0.3719829             -10.1222 (LUMO)
        69                         -0.3292928              -8.9605
        70                         -0.2783679              -7.5748
        71                         -0.2742439              -7.4626
        72                         -0.2692950              -7.3279
        73                         -0.1960649              -5.3352
        74                         -0.1642495              -4.4695
        75                         -0.1519408              -4.1345
        76                         -0.1513671              -4.1189
        77                         -0.1411790              -3.8417
        78                         -0.1315905              -3.5808
       ...                                ...                  ...
       144                          0.6897542              18.7692
      -------------------------------------------------------------
                  HL-Gap            0.0595201 Eh            1.6196 eV

Wiberg/Mayer (AO) data.
largest (>0.10) Wiberg bond orders for each atom

     #   Z sym  total        # sym  WBO       # sym  WBO       # sym  WBO
 ---------------------------------------------------------------------------
     1   6 C    3.842 --    28 H    0.983    27 H    0.981    26 H    0.981
                             2 O    0.848
     2   8 O    2.118 --     3 C    1.083     1 C    0.848
     3   6 C    3.904 --     4 C    1.285    24 N    1.263     2 O    1.083
     4   6 C    3.925 --     6 C    1.341     3 C    1.285     5 O    1.100
     5   8 O    2.086 --     4 C    1.100    29 H    0.794
     6   6 C    3.953 --    18 N    1.345     4 C    1.341     7 C    0.965
     7   6 C    3.918 --     8 O    1.584     9 N    1.295     6 C    0.965
     8   8 O    1.903 --     7 C    1.584     9 N    0.189
     9   7 N    3.381 --     7 C    1.295    10 C    0.932    30 H    0.884
                             8 O    0.189
    10   6 C    3.936 --    11 C    0.992    31 H    0.976    32 H    0.967
                             9 N    0.932
    11   6 C    3.986 --    17 C    1.423    12 C    1.414    10 C    0.992
    12   6 C    3.992 --    13 C    1.448    11 C    1.414    33 H    0.969
                            16 C    0.111
    13   6 C    3.992 --    12 C    1.448    14 C    1.397    34 H    0.969
                            17 C    0.110
    14   6 C    3.861 --    16 C    1.403    13 C    1.397    15 F    0.927
    15   9 F    1.056 --    14 C    0.927
    16   6 C    3.991 --    17 C    1.439    14 C    1.403    35 H    0.969
                            12 C    0.111
    17   6 C    3.993 --    16 C    1.439    11 C    1.423    36 H    0.970
                            13 C    0.110
    18   7 N    3.050 --    19 C    1.467     6 C    1.345
    19   6 C    3.897 --    18 N    1.467    24 N    1.210    20 C    0.980
    20   6 C    3.959 --    23 N    0.990    22 C    0.982    19 C    0.980
                            21 C    0.971
    21   6 C    3.990 --    38 H    0.985    39 H    0.980    37 H    0.979
                            20 C    0.971
    22   6 C    3.991 --    42 H    0.984    40 H    0.984    41 H    0.982
                            20 C    0.982
    23   7 N    2.976 --    20 C    0.990    43 H    0.936    44 H    0.931
    24   7 N    3.595 --     3 C    1.263    19 C    1.210    25 C    0.909
    25   6 C    3.890 --    46 H    0.975    45 H    0.969    47 H    0.964
                            24 N    0.909
    26   1 H    1.003 --     1 C    0.981
    27   1 H    1.002 --     1 C    0.981
    28   1 H    1.002 --     1 C    0.983
    29   1 H    0.822 --     5 O    0.794
    30   1 H    0.937 --     9 N    0.884
    31   1 H    1.001 --    10 C    0.976
    32   1 H    1.007 --    10 C    0.967
    33   1 H    1.008 --    12 C    0.969
    34   1 H    0.998 --    13 C    0.969
    35   1 H    0.997 --    16 C    0.969
    36   1 H    0.999 --    17 C    0.970
    37   1 H    1.002 --    21 C    0.979
    38   1 H    1.001 --    21 C    0.985
    39   1 H    0.997 --    21 C    0.980
    40   1 H    1.001 --    22 C    0.984
    41   1 H    1.010 --    22 C    0.982
    42   1 H    1.003 --    22 C    0.984
    43   1 H    0.950 --    23 N    0.936
    44   1 H    0.945 --    23 N    0.931
    45   1 H    1.018 --    25 C    0.969
    46   1 H    0.994 --    25 C    0.975
    47   1 H    1.013 --    25 C    0.964
 ---------------------------------------------------------------------------

           -------------------------------------------------
          | TOTAL ENERGY              -79.520967828994 Eh   |
          | GRADIENT NORM               0.000471881892 Eh/α |
          | HOMO-LUMO GAP               1.619624152558 eV   |
           -------------------------------------------------

 * finished run on 2023/06/20 at 15:40:58.196
