   * xtb version 6.5.1 (579679a) compiled by 'ehlert@majestix' on 2022-07-11
          program call               : /lustre/hpc/kemi/ree/PhD/git/ReactivityQM/dep/xtb-6.5.1/bin/xtb --gfn 1 /lustre/hpc/kemi/ree/PhD/git/ReactivityQM/calculations/R02oxygendeprot/reac01prodN12/conf13/R02oxygendeprot_reac01prodN12_conf13_gfn1.xyz --opt --vfukui --chrg 0 --uhf 0 --alpb DMSO

   ID    Z sym.   atoms
    1    6 C      1, 3, 5, 7-10, 12, 14, 15, 18, 19, 22, 24
    2    8 O      2, 4, 13, 20, 23, 25
    3    7 N      6, 11, 16, 17, 21
    4    1 H      26-42

      * Solvation model:               ALPB
        Solvent                        DMSO
        Solvent mass                       7.8130E+01 g/mol
          :  Hamiltonian                  GFN1-xTB          :
 * total energy  :   -82.9292034 Eh     change       -0.2335554E-09 Eh
 * total energy  :   -82.9405870 Eh     change       -0.1138362E-01 Eh
 * total energy  :   -82.9449460 Eh     change       -0.4358926E-02 Eh
 * total energy  :   -82.9454938 Eh     change       -0.5478218E-03 Eh
 * total energy  :   -82.9457790 Eh     change       -0.2852290E-03 Eh
 * total energy  :   -82.9459103 Eh     change       -0.1313262E-03 Eh
 * total energy  :   -82.9460413 Eh     change       -0.1309238E-03 Eh
 * total energy  :   -82.9461563 Eh     change       -0.1150698E-03 Eh
 * total energy  :   -82.9462551 Eh     change       -0.9876307E-04 Eh
 * total energy  :   -82.9463265 Eh     change       -0.7140215E-04 Eh
 * total energy  :   -82.9469663 Eh     change       -0.1814909E-04 Eh
 * total energy  :   -82.9469794 Eh     change       -0.1310757E-04 Eh
 * total energy  :   -82.9469915 Eh     change       -0.1209726E-04 Eh
 * total energy  :   -82.9470042 Eh     change       -0.1269118E-04 Eh
 * total energy  :   -82.9470136 Eh     change       -0.9399953E-05 Eh
 * total energy  :   -82.9470248 Eh     change       -0.1116976E-04 Eh
 * total energy  :   -82.9470334 Eh     change       -0.8554577E-05 Eh
 * total energy  :   -82.9470386 Eh     change       -0.5273103E-05 Eh
 * total energy  :   -82.9470422 Eh     change       -0.3532319E-05 Eh
   *** GEOMETRY OPTIMIZATION CONVERGED AFTER 40 ITERATIONS ***

 final structure:
================
42
 xtb: 6.5.1 (579679a)
C            6.17690411685912       -2.20291562691749        1.35213476120033
O            5.20141795555619       -1.16774798995701        1.46622867953802
C            4.20158048439810       -1.19677005309457        0.57765516121227
O            4.11954910781733       -2.05512126353947       -0.28093898477654
C            3.21943267578739       -0.10177112950831        0.73240224001215
N            2.23193803803526       -0.14021805311253       -0.19895916543439
C            1.30338842705992        0.76015485311544       -0.22538229660056
C            0.23124787480787        0.70782361701829       -1.28777043831955
C            0.33985255799739        1.92971151792617       -2.20903164658693
C            0.33787990597344       -0.59917369640796       -2.07499460884579
N           -1.06354198721229        0.75559247154965       -0.57057611836453
C           -2.23651366217826        0.70772576982018       -1.18727303713501
O           -2.45466369774363        0.61068531907392       -2.36993197557373
C           -3.46758969197221        0.81868795676890       -0.18040884446644
C           -4.32221504997392        2.00084587252028       -0.63169674983297
N           -3.02274424685158        0.90830313829906        1.16263786988819
N           -3.40281243419085       -0.15211850524642        1.80231025319808
C           -4.10149536744599       -0.92103458918858        0.95843080789330
C           -4.72882911556208       -2.20862790668143        1.28807662839647
O           -4.18763269611940       -0.39864469910286       -0.23711096337392
N            1.25750066275159        1.77955275699243        0.68433580162506
C            2.17947466264743        1.94460850943891        1.70165145283844
O            2.06985428840995        2.87707676984658        2.47668483733268
C            3.28271939189062        0.90654772290817        1.75053344523425
O            4.13853697982610        0.98647672396919        2.63322736683839
H            6.64394597261382       -2.17674359892433        0.36400200356569
H            5.71125418792280       -3.18066946115621        1.50126619645880
H            6.92189741370713       -2.02023393541192        2.12446457733318
H            1.32455130333013        1.94701755940446       -2.67354736748170
H            0.19961758869077        2.84452089340739       -1.63683543126146
H           -0.41920649700671        1.88000164396618       -2.98712760558646
H            1.32028384552515       -0.65533959870219       -2.54177608137627
H            0.21731887406035       -1.44863964177720       -1.40436375257970
H           -0.42724908991614       -0.63794129099260       -2.84695211537518
H           -1.05772996884776        0.86248764380225        0.43410893016192
H           -4.57826124511682        1.86694706231741       -1.68103844110525
H           -3.75614071421442        2.91969680801497       -0.50313249451957
H           -5.22733364394254        2.03824298219240       -0.03034355887294
H           -4.75003742513499       -2.85434469750239        0.41214994833389
H           -5.76059280096073       -2.03041723218788        1.60040659443427
H           -4.19972066725174       -2.68575607914365        2.11040495224446
H            0.53416468597997        2.47725745619544        0.62607616972918

          :  Hamiltonian                  GFN1-xTB          :
         :: total energy             -82.947042169840 Eh    ::
         :: gradient norm              0.000487657267 Eh/a0 ::
         :: HOMO-LUMO gap              0.094208927696 eV    ::
         :: SCC energy               -83.717685395533 Eh    ::
         :: -> Gsolv                  -0.074830237614 Eh    ::
         :: repulsion energy           0.796811411839 Eh    ::

    * Orbital Energies and Occupations

         #    Occupation            Energy/Eh            Energy/eV
      -------------------------------------------------------------
         1        2.0000           -0.8897853             -24.2123
       ...           ...                  ...                  ...
        55        2.0000           -0.5107882             -13.8993
        56        2.0000           -0.5090545             -13.8521
        57        2.0000           -0.5067988             -13.7907
        58        2.0000           -0.4959544             -13.4956
        59        2.0000           -0.4872907             -13.2599
        60        2.0000           -0.4868712             -13.2484
        61        2.0000           -0.4789526             -13.0330
        62        2.0000           -0.4756531             -12.9432
        63        2.0000           -0.4733253             -12.8798
        64        2.0000           -0.4676464             -12.7253
        65        2.0000           -0.4541538             -12.3582
        66        2.0000           -0.4164003             -11.3308
        67        1.7216           -0.4017179             -10.9313 (HOMO)
        68        0.2784           -0.3982558             -10.8371 (LUMO)
        69                         -0.3033151              -8.2536
        70                         -0.2924051              -7.9567
        71                         -0.2807037              -7.6383
        72                         -0.2777444              -7.5578
        73                         -0.2290431              -6.2326
        74                         -0.1593316              -4.3356
        75                         -0.1488544              -4.0505
        76                         -0.1417663              -3.8577
        77                         -0.1367727              -3.7218
        78                         -0.1324454              -3.6040
       ...                                ...                  ...
       134                          0.7471546              20.3311
      -------------------------------------------------------------
                  HL-Gap            0.0034621 Eh            0.0942 eV

Wiberg/Mayer (AO) data.
largest (>0.10) Wiberg bond orders for each atom

     #   Z sym  total        # sym  WBO       # sym  WBO       # sym  WBO
 ---------------------------------------------------------------------------
     1   6 C    3.880 --    28 H    0.986    27 H    0.980    26 H    0.979
                             2 O    0.906
     2   8 O    2.187 --     3 C    1.097     1 C    0.906     4 O    0.127
     3   6 C    3.841 --     4 O    1.622     2 O    1.097     5 C    1.040
     4   8 O    1.869 --     3 C    1.622     2 O    0.127
     5   6 C    3.740 --     6 N    1.257    24 C    1.190     3 C    1.040
     6   7 N    3.001 --     7 C    1.525     5 C    1.257
     7   6 C    3.839 --     6 N    1.525    21 N    1.153     8 C    0.983
     8   6 C    3.918 --    10 C    0.995     7 C    0.983     9 C    0.980
                            11 N    0.891
     9   6 C    3.983 --    29 H    0.984    30 H    0.983     8 C    0.980
                            31 H    0.979
    10   6 C    3.987 --     8 C    0.995    33 H    0.984    32 H    0.982
                            34 H    0.981
    11   7 N    3.361 --    12 C    1.330     8 C    0.891    35 H    0.881
                            13 O    0.178
    12   6 C    3.870 --    13 O    1.643    11 N    1.330    14 C    0.795
    13   8 O    1.990 --    12 C    1.643    11 N    0.178
    14   6 C    3.846 --    16 N    1.075    15 C    0.936    20 O    0.900
                            12 C    0.795
    15   6 C    3.939 --    37 H    0.981    38 H    0.979    36 H    0.977
                            14 C    0.936
    16   7 N    2.750 --    17 N    1.473    14 C    1.075
    17   7 N    2.959 --    16 N    1.473    18 C    1.330
    18   6 C    3.702 --    17 N    1.330    20 O    1.194    19 C    1.052
    19   6 C    3.973 --    18 C    1.052    41 H    0.970    39 H    0.966
                            40 H    0.930
    20   8 O    2.253 --    18 C    1.194    14 C    0.900
    21   7 N    3.422 --     7 C    1.153    22 C    1.118    42 H    0.887
                            23 O    0.119
    22   6 C    3.847 --    23 O    1.638    21 N    1.118    24 C    0.952
    23   8 O    1.872 --    22 C    1.638    21 N    0.119
    24   6 C    3.883 --    25 O    1.592     5 C    1.190    22 C    0.952
    25   8 O    1.792 --    24 C    1.592
    26   1 H    1.009 --     1 C    0.979
    27   1 H    1.008 --     1 C    0.980
    28   1 H    1.012 --     1 C    0.986
    29   1 H    0.999 --     9 C    0.984
    30   1 H    1.000 --     9 C    0.983
    31   1 H    1.003 --     9 C    0.979
    32   1 H    1.008 --    10 C    0.982
    33   1 H    1.006 --    10 C    0.984
    34   1 H    1.006 --    10 C    0.981
    35   1 H    0.948 --    11 N    0.881
    36   1 H    0.999 --    15 C    0.977
    37   1 H    0.995 --    15 C    0.981
    38   1 H    0.994 --    15 C    0.979
    39   1 H    0.988 --    19 C    0.966
    40   1 H    0.977 --    19 C    0.930
    41   1 H    0.991 --    19 C    0.970
    42   1 H    0.932 --    21 N    0.887
 ---------------------------------------------------------------------------

           -------------------------------------------------
          | TOTAL ENERGY              -82.947042169840 Eh   |
          | GRADIENT NORM               0.000487657267 Eh/α |
          | HOMO-LUMO GAP               0.094208927696 eV   |
           -------------------------------------------------

 * finished run on 2023/06/21 at 17:27:46.756
