   * xtb version 6.5.1 (579679a) compiled by 'ehlert@majestix' on 2022-07-11
          program call               : /lustre/hpc/kemi/ree/PhD/git/ReactivityQM/dep/xtb-6.5.1/bin/xtb --gfn 1 /lustre/hpc/kemi/ree/PhD/git/ReactivityQM/calculations/R02/reac01prodN07/conf13/R02_reac01prodN07_conf13_gfn1.xyz --opt --vfukui --chrg 1 --uhf 0 --alpb DMSO

   ID    Z sym.   atoms
    1    6 C      1, 3, 5, 7-10, 12, 14, 17-19, 22, 24
    2    8 O      2, 4, 13, 20, 23, 25
    3    7 N      6, 11, 15, 16, 21
    4    1 H      26-43

      * Solvation model:               ALPB
        Solvent                        DMSO
        Solvent mass                       7.8130E+01 g/mol
          :  Hamiltonian                  GFN1-xTB          :
 * total energy  :   -83.1541781 Eh     change       -0.2061995E-10 Eh
 * total energy  :   -83.1722877 Eh     change       -0.1810957E-01 Eh
 * total energy  :   -83.1789532 Eh     change       -0.6665589E-02 Eh
 * total energy  :   -83.1803479 Eh     change       -0.1394648E-02 Eh
 * total energy  :   -83.1810425 Eh     change       -0.6946151E-03 Eh
 * total energy  :   -83.1812456 Eh     change       -0.2031245E-03 Eh
 * total energy  :   -83.1813723 Eh     change       -0.1266622E-03 Eh
 * total energy  :   -83.1814660 Eh     change       -0.9367737E-04 Eh
 * total energy  :   -83.1815510 Eh     change       -0.8501980E-04 Eh
 * total energy  :   -83.1816298 Eh     change       -0.7881687E-04 Eh
 * total energy  :   -83.1819388 Eh     change       -0.2686045E-04 Eh
 * total energy  :   -83.1819808 Eh     change       -0.4194657E-04 Eh
 * total energy  :   -83.1820261 Eh     change       -0.4527360E-04 Eh
 * total energy  :   -83.1820469 Eh     change       -0.2087206E-04 Eh
 * total energy  :   -83.1820563 Eh     change       -0.9343733E-05 Eh
 * total energy  :   -83.1820686 Eh     change       -0.1229483E-04 Eh
 * total energy  :   -83.1820729 Eh     change       -0.4288675E-05 Eh
 * total energy  :   -83.1820794 Eh     change       -0.6547609E-05 Eh
 * total energy  :   -83.1820830 Eh     change       -0.3584910E-05 Eh
   *** GEOMETRY OPTIMIZATION CONVERGED AFTER 26 ITERATIONS ***

 final structure:
================
43
 xtb: 6.5.1 (579679a)
C            6.74291900659244       -0.96471950458564       -1.42974891903803
O            5.56954989232348       -1.09987891288931       -0.62119344175080
C            4.64158015722617       -0.15666582084325       -0.75358857932165
O            4.74813388949457        0.77999867946735       -1.51182568795326
C            3.45485391912406       -0.36712790825367        0.12916426624787
N            2.50529614752394        0.62151918490874        0.01538422757203
C            1.42777144424010        0.57312787056368        0.71856945358705
C            0.40895882661244        1.69400477523364        0.58359140913365
C            0.85518036167207        2.65956549393563       -0.51523454104595
C            0.24494718164718        2.43938879874148        1.91294578179235
N           -0.88687918884803        1.13161326021854        0.14512777138722
C           -1.74175700320570        0.45052678246830        0.91444259617580
O           -1.58769212888469        0.10933245441414        2.06982230190925
C           -2.99163467764928        0.09456204080861        0.15875472820792
N           -3.27661443011542        0.35915861354090       -1.08120763871101
N           -4.49351935419935       -0.18000951341335       -1.27925188431702
C           -5.13079617134124       -0.08107909337737       -2.57675993231301
C           -4.91458585837394       -0.75650071349077       -0.17072455055987
C           -6.18013761413431       -1.46467386398192        0.07843943049545
O           -3.98463509033587       -0.59521279398989        0.74603809164289
N            1.18258371203109       -0.43303883414809        1.60721708250146
C            2.04128243964613       -1.48710349828754        1.79224678050649
O            1.81186595339880       -2.40559788824967        2.56482699559467
C            3.26001886206300       -1.41628112893144        0.98536274495680
O            4.11588353975550       -2.42793119832466        1.15562405841266
H            7.29302882636563       -0.06501478602876       -1.14390662286246
H            7.34788426796693       -1.85141292569214       -1.25027252785540
H            6.46638183110672       -0.89977322657456       -2.48471754897671
H            1.81814073783046        3.09391686029492       -0.24987096693556
H            0.96177260278719        2.13030242744816       -1.46094966942176
H            0.12191774221822        3.45525021060374       -0.62788540388023
H            1.17996852518872        2.94374843730172        2.15381951115583
H           -0.54557563937354        3.18134682482462        1.81811457950792
H           -0.00485799642493        1.75769154190542        2.72234233752009
H           -1.16893478582012        1.34000629922527       -0.79949644131302
H           -4.59667001104722        0.66941855201622       -3.15351423578627
H           -6.17043135847592        0.20639563485203       -2.43577837554310
H           -5.07662607169400       -1.05044104049392       -3.07160200106784
H           -6.34715682621311       -2.21320118553553       -0.69651824151171
H           -6.14746162599562       -1.93741328012873        1.05856531392052
H           -7.01110034655709       -0.75683462843894        0.04360004657624
H            0.31554928191537       -0.44401371978350        2.13410806722053
H            3.74159602996615       -3.05155627733787        1.80594063413649

          :  Hamiltonian                  GFN1-xTB          :
         :: total energy             -83.182082982680 Eh    ::
         :: gradient norm              0.000761014062 Eh/a0 ::
         :: HOMO-LUMO gap              2.008438611050 eV    ::
         :: SCC energy               -83.990770725649 Eh    ::
         :: -> Gsolv                  -0.126043215252 Eh    ::
         :: repulsion energy           0.834201373348 Eh    ::

    * Orbital Energies and Occupations

         #    Occupation            Energy/Eh            Energy/eV
      -------------------------------------------------------------
         1        2.0000           -0.9405783             -25.5944
       ...           ...                  ...                  ...
        55        2.0000           -0.5305991             -14.4383
        56        2.0000           -0.5241533             -14.2629
        57        2.0000           -0.5215321             -14.1916
        58        2.0000           -0.5168852             -14.0652
        59        2.0000           -0.5164639             -14.0537
        60        2.0000           -0.5000436             -13.6069
        61        2.0000           -0.4971252             -13.5275
        62        2.0000           -0.4929101             -13.4128
        63        2.0000           -0.4895360             -13.3210
        64        2.0000           -0.4873731             -13.2621
        65        2.0000           -0.4642981             -12.6342
        66        2.0000           -0.4563113             -12.4169
        67        2.0000           -0.4385084             -11.9324 (HOMO)
        68                         -0.3646997              -9.9240 (LUMO)
        69                         -0.3472244              -9.4485
        70                         -0.3290297              -8.9534
        71                         -0.2926764              -7.9641
        72                         -0.2483156              -6.7570
        73                         -0.2446181              -6.6564
        74                         -0.1857035              -5.0532
        75                         -0.1731438              -4.7115
        76                         -0.1642793              -4.4703
        77                         -0.1419496              -3.8626
        78                         -0.1402771              -3.8171
       ...                                ...                  ...
       136                          0.7286361              19.8272
      -------------------------------------------------------------
                  HL-Gap            0.0738088 Eh            2.0084 eV

Wiberg/Mayer (AO) data.
largest (>0.10) Wiberg bond orders for each atom

     #   Z sym  total        # sym  WBO       # sym  WBO       # sym  WBO
 ---------------------------------------------------------------------------
     1   6 C    3.870 --    27 H    0.986    28 H    0.980    26 H    0.979
                             2 O    0.895
     2   8 O    2.206 --     3 C    1.119     1 C    0.895     4 O    0.136
     3   6 C    3.853 --     4 O    1.657     2 O    1.119     5 C    0.997
     4   8 O    1.920 --     3 C    1.657     2 O    0.136
     5   6 C    3.961 --    24 C    1.507     6 N    1.172     3 C    0.997
     6   7 N    3.030 --     7 C    1.600     5 C    1.172
     7   6 C    3.935 --     6 N    1.600    21 N    1.172     8 C    0.969
     8   6 C    3.918 --     9 C    1.001    10 C    0.984     7 C    0.969
                            11 N    0.899
     9   6 C    3.988 --     8 C    1.001    31 H    0.984    30 H    0.982
                            29 H    0.981
    10   6 C    3.985 --     8 C    0.984    32 H    0.983    33 H    0.983
                            34 H    0.979
    11   7 N    3.381 --    12 C    1.301     8 C    0.899    35 H    0.889
                            13 O    0.197
    12   6 C    3.925 --    13 O    1.592    11 N    1.301    14 C    0.958
    13   8 O    1.949 --    12 C    1.592    11 N    0.197
    14   6 C    3.845 --    15 N    1.607    20 O    1.068    12 C    0.958
    15   7 N    2.993 --    14 C    1.607    16 N    1.153
    16   7 N    3.630 --    18 C    1.419    15 N    1.153    17 C    0.908
    17   6 C    3.883 --    36 H    0.977    37 H    0.973    38 H    0.965
                            16 N    0.908
    18   6 C    3.841 --    16 N    1.419    20 O    1.157    19 C    1.042
    19   6 C    3.960 --    18 C    1.042    40 H    0.971    39 H    0.951
                            41 H    0.939
    20   8 O    2.393 --    18 C    1.157    14 C    1.068
    21   7 N    3.471 --     7 C    1.172    22 C    1.145    42 H    0.856
                            23 O    0.135
    22   6 C    3.911 --    23 O    1.577    21 N    1.145    24 C    1.058
    23   8 O    1.902 --    22 C    1.577    21 N    0.135
    24   6 C    3.920 --     5 C    1.507    25 O    1.113    22 C    1.058
    25   8 O    2.091 --    24 C    1.113    43 H    0.805
    26   1 H    1.006 --     1 C    0.979
    27   1 H    1.010 --     1 C    0.986
    28   1 H    1.007 --     1 C    0.980
    29   1 H    1.006 --     9 C    0.981
    30   1 H    1.004 --     9 C    0.982
    31   1 H    0.997 --     9 C    0.984
    32   1 H    0.999 --    10 C    0.983
    33   1 H    0.997 --    10 C    0.983
    34   1 H    1.006 --    10 C    0.979
    35   1 H    0.934 --    11 N    0.889
    36   1 H    0.991 --    17 C    0.977
    37   1 H    0.989 --    17 C    0.973
    38   1 H    0.989 --    17 C    0.965
    39   1 H    0.986 --    19 C    0.951
    40   1 H    0.985 --    19 C    0.971
    41   1 H    0.985 --    19 C    0.939
    42   1 H    0.928 --    21 N    0.856
    43   1 H    0.845 --    25 O    0.805
 ---------------------------------------------------------------------------

           -------------------------------------------------
          | TOTAL ENERGY              -83.182082982680 Eh   |
          | GRADIENT NORM               0.000761014062 Eh/α |
          | HOMO-LUMO GAP               2.008438611050 eV   |
           -------------------------------------------------

 * finished run on 2023/06/20 at 15:26:51.831
