   * xtb version 6.5.1 (579679a) compiled by 'ehlert@majestix' on 2022-07-11
          program call               : /lustre/hpc/kemi/ree/PhD/git/ReactivityQM/dep/xtb-6.5.1/bin/xtb --gfn 1 /lustre/hpc/kemi/ree/PhD/git/ReactivityQM/calculations/R03/reac02prodN09/conf10/R03_reac02prodN09_conf10_gfn1.xyz --opt --vfukui --chrg 1 --uhf 0 --alpb DMSO

   ID    Z sym.   atoms
    1    6 C      1, 3, 5, 6, 8-11, 13, 15, 18, 19, 22, 23, 25
    2    8 O      2, 4, 14, 20, 24, 26
    3    7 N      7, 12, 16, 17, 21
    4    1 H      27-46

      * Solvation model:               ALPB
        Solvent                        DMSO
        Solvent mass                       7.8130E+01 g/mol
          :  Hamiltonian                  GFN1-xTB          :
 * total energy  :   -86.2854554 Eh     change       -0.1041656E-10 Eh
 * total energy  :   -86.3033318 Eh     change       -0.1787644E-01 Eh
 * total energy  :   -86.3107121 Eh     change       -0.7380299E-02 Eh
 * total energy  :   -86.3124733 Eh     change       -0.1761153E-02 Eh
 * total energy  :   -86.3138753 Eh     change       -0.1402077E-02 Eh
 * total energy  :   -86.3146330 Eh     change       -0.7576271E-03 Eh
 * total energy  :   -86.3153582 Eh     change       -0.7251987E-03 Eh
 * total energy  :   -86.3158967 Eh     change       -0.5385385E-03 Eh
 * total energy  :   -86.3161786 Eh     change       -0.2819278E-03 Eh
 * total energy  :   -86.3163345 Eh     change       -0.1558571E-03 Eh
 * total energy  :   -86.3209883 Eh     change       -0.1285964E-04 Eh
 * total energy  :   -86.3210020 Eh     change       -0.1367090E-04 Eh
 * total energy  :   -86.3210123 Eh     change       -0.1037161E-04 Eh
 * total energy  :   -86.3210205 Eh     change       -0.8166477E-05 Eh
 * total energy  :   -86.3210282 Eh     change       -0.7693206E-05 Eh
 * total energy  :   -86.3210340 Eh     change       -0.5765838E-05 Eh
 * total energy  :   -86.3210391 Eh     change       -0.5177047E-05 Eh
 * total energy  :   -86.3210434 Eh     change       -0.4312684E-05 Eh
 * total energy  :   -86.3210478 Eh     change       -0.4343887E-05 Eh
   *** GEOMETRY OPTIMIZATION CONVERGED AFTER 64 ITERATIONS ***

 final structure:
================
46
 xtb: 6.5.1 (579679a)
C           -4.14472413822805        2.29633708980922        1.09918319750635
O           -3.35026958376135        1.24834363400986        0.49117685697491
C           -3.89080458175159        0.08486252678293        0.33186795475138
O           -4.99299619411500       -0.28274710208421        0.57690039954189
C           -2.81715648319140       -0.95560799666043       -0.31054659259249
C           -3.40031311723707       -2.36021935241655       -0.15279344558835
N           -1.63664721855150       -0.78159172631637        0.45507485847149
C           -0.67037506601530       -0.02330098478193        0.09189086763758
C            0.48946827972098        0.07760058178640        1.07013028070861
C            0.45371061007678        1.42689008332616        1.79476090636327
C            0.39441796866873       -1.06218530322229        2.09517538092941
N            1.75508648573448       -0.06075752769049        0.35566934300853
C            1.89981836270902       -1.03243087634777       -0.57991370789769
O            0.96769263455467       -1.67947074936332       -1.02923087604537
C            3.29469222770465       -1.19295454405870       -1.03496422809769
N            3.76239815323036       -2.03185998962930       -1.90652115759607
N            5.10273589814386       -1.81339980955041       -1.98150156747829
C            5.37422375052924       -0.85366428101215       -1.15082322336633
C            6.69033096957694       -0.24479737664024       -0.86346401659485
O            4.27270036338094       -0.41725442234484       -0.51901875420583
N           -0.69343234945193        0.71771731938680       -1.09027684116521
C            0.28295224131491        1.74435770414546       -1.46082123841250
C           -1.67236274004864        0.53610906578389       -2.02079669000430
O           -1.72787021729401        1.10274234348108       -3.09712916520003
C           -2.72457566839851       -0.44266998903160       -1.66092587317688
O           -3.60171442380088       -0.70904486043582       -2.55234164189899
H           -4.10876570629223        2.18030906465357        2.18223218742577
H           -5.17245495944577        2.23111244098084        0.74110258713428
H           -3.68004731249198        3.23170250528412        0.79799589329967
H           -3.56212243918524       -2.56186632033794        0.90353738045301
H           -2.69433011688552       -3.08286987037397       -0.55640424806875
H           -4.34440255835962       -2.42720816810211       -0.68894579019795
H           -0.50492019663129        1.54016927379636        2.29887866139768
H            0.58833105806357        2.25665742033467        1.10611188360697
H            1.24905281720742        1.45726028943361        2.53731927902023
H            0.35353854317798       -2.02250710767060        1.58317814314356
H            1.27085560855124       -1.03451901186416        2.73928804764830
H           -0.50080677390528       -0.94370978627489        2.70179403150721
H            2.57249530103941        0.35151921818833        0.77485828756867
H            6.66688662175086        0.81702006513882       -1.10825523281639
H            6.91731216174822       -0.33838767008708        0.19843941799168
H            7.46112082184823       -0.73951005105156       -1.44999781268535
H           -0.16005419549830        2.72204862817143       -1.27336964657021
H            1.19719456075556        1.62902771982418       -0.89301542462104
H            0.48715770395493        1.64342666613206       -2.52718965171243
H           -3.45302810291263       -0.20067876310539       -3.38383402009928

          :  Hamiltonian                  GFN1-xTB          :
         :: total energy             -86.321047784551 Eh    ::
         :: gradient norm              0.000882423128 Eh/a0 ::
         :: HOMO-LUMO gap              1.014285354054 eV    ::
         :: SCC energy               -87.154743753850 Eh    ::
         :: -> Gsolv                  -0.109143709587 Eh    ::
         :: repulsion energy           0.865153527057 Eh    ::

    * Orbital Energies and Occupations

         #    Occupation            Energy/Eh            Energy/eV
      -------------------------------------------------------------
         1        2.0000           -0.9120961             -24.8194
       ...           ...                  ...                  ...
        58        2.0000           -0.5341971             -14.5362
        59        2.0000           -0.5284563             -14.3800
        60        2.0000           -0.5252225             -14.2920
        61        2.0000           -0.5173407             -14.0776
        62        2.0000           -0.5129316             -13.9576
        63        2.0000           -0.5056922             -13.7606
        64        2.0000           -0.4908807             -13.3575
        65        2.0000           -0.4896534             -13.3241
        66        2.0000           -0.4855732             -13.2131
        67        2.0000           -0.4789119             -13.0319
        68        2.0000           -0.4701507             -12.7935
        69        2.0000           -0.4605562             -12.5324
        70        2.0000           -0.4579162             -12.4605 (HOMO)
        71                         -0.4206419             -11.4462 (LUMO)
        72                         -0.3331967              -9.0667
        73                         -0.3240714              -8.8184
        74                         -0.3067472              -8.3470
        75                         -0.2641814              -7.1887
        76                         -0.2632074              -7.1622
        77                         -0.2103765              -5.7246
        78                         -0.1663345              -4.5262
        79                         -0.1592810              -4.3343
        80                         -0.1511649              -4.1134
        81                         -0.1497488              -4.0749
       ...                                ...                  ...
       144                          0.7440101              20.2455
      -------------------------------------------------------------
                  HL-Gap            0.0372743 Eh            1.0143 eV

Wiberg/Mayer (AO) data.
largest (>0.10) Wiberg bond orders for each atom

     #   Z sym  total        # sym  WBO       # sym  WBO       # sym  WBO
 ---------------------------------------------------------------------------
     1   6 C    3.818 --    29 H    0.980    28 H    0.980    27 H    0.976
                             2 O    0.839
     2   8 O    2.249 --     3 C    1.214     1 C    0.839     4 O    0.148
     3   6 C    3.856 --     4 O    1.747     2 O    1.214     5 C    0.710
     4   8 O    2.086 --     3 C    1.747     2 O    0.148
     5   6 C    3.957 --    25 C    1.098     7 N    1.024     6 C    0.955
                             3 C    0.710
     6   6 C    3.967 --    30 H    0.981    32 H    0.981    31 H    0.978
                             5 C    0.955
     7   7 N    3.038 --     8 C    1.674     5 C    1.024
     8   6 C    3.913 --     7 N    1.674    21 N    1.088     9 C    0.975
     9   6 C    3.936 --    11 C    0.986    10 C    0.980     8 C    0.975
                            12 N    0.933
    10   6 C    3.986 --    33 H    0.983     9 C    0.980    34 H    0.980
                            35 H    0.979
    11   6 C    3.985 --     9 C    0.986    37 H    0.984    38 H    0.983
                            36 H    0.982
    12   7 N    3.335 --    13 C    1.229     9 C    0.933    39 H    0.886
                            14 O    0.166
    13   6 C    3.912 --    14 O    1.587    12 N    1.229    15 C    1.005
    14   8 O    1.899 --    13 C    1.587    12 N    0.166
    15   6 C    3.877 --    16 N    1.614    20 O    1.047    13 C    1.005
    16   7 N    3.004 --    15 C    1.614    17 N    1.207
    17   7 N    2.982 --    18 C    1.601    16 N    1.207
    18   6 C    3.865 --    17 N    1.601    20 O    1.075    19 C    1.033
    19   6 C    3.985 --    18 C    1.033    42 H    0.982    41 H    0.962
                            40 H    0.961
    20   8 O    2.318 --    18 C    1.075    15 C    1.047
    21   7 N    3.538 --    23 C    1.200     8 C    1.088    22 C    0.917
                            24 O    0.171
    22   6 C    3.899 --    44 H    0.973    45 H    0.968    43 H    0.965
                            21 N    0.917
    23   6 C    3.927 --    24 O    1.597    21 N    1.200    25 C    0.998
    24   8 O    1.958 --    23 C    1.597    21 N    0.171
    25   6 C    3.817 --    26 O    1.345     5 C    1.098    23 C    0.998
    26   8 O    2.272 --    25 C    1.345    46 H    0.745
    27   1 H    0.998 --     1 C    0.976
    28   1 H    0.998 --     1 C    0.980
    29   1 H    1.003 --     1 C    0.980
    30   1 H    0.998 --     6 C    0.981
    31   1 H    0.994 --     6 C    0.978
    32   1 H    0.999 --     6 C    0.981
    33   1 H    0.999 --    10 C    0.983
    34   1 H    0.998 --    10 C    0.980
    35   1 H    0.994 --    10 C    0.979
    36   1 H    1.005 --    11 C    0.982
    37   1 H    0.999 --    11 C    0.984
    38   1 H    1.007 --    11 C    0.983
    39   1 H    0.927 --    12 N    0.886
    40   1 H    0.996 --    19 C    0.961
    41   1 H    0.996 --    19 C    0.962
    42   1 H    0.997 --    19 C    0.982
    43   1 H    0.995 --    22 C    0.965
    44   1 H    1.005 --    22 C    0.973
    45   1 H    0.997 --    22 C    0.968
    46   1 H    0.793 --    26 O    0.745
 ---------------------------------------------------------------------------

           -------------------------------------------------
          | TOTAL ENERGY              -86.321047784551 Eh   |
          | GRADIENT NORM               0.000882423128 Eh/α |
          | HOMO-LUMO GAP               1.014285354054 eV   |
           -------------------------------------------------

 * finished run on 2023/06/20 at 15:44:18.051
