   * xtb version 6.5.1 (579679a) compiled by 'ehlert@majestix' on 2022-07-11
          program call               : /lustre/hpc/kemi/ree/PhD/git/ReactivityQM/dep/xtb-6.5.1/bin/xtb --gfn 1 /lustre/hpc/kemi/ree/PhD/git/ReactivityQM/calculations/R01/reac02prodE04/conf10/R01_reac02prodE04_conf10_gfn1.xyz --opt --vfukui --chrg -1 --uhf 0 --alpb DMSO

   ID    Z sym.   atoms
    1    6 C      1, 3, 5, 6, 8, 11-14, 17
    2    8 O      2, 4, 7, 9
    3    7 N      10, 15, 16
    4    1 H      18-33

      * Solvation model:               ALPB
        Solvent                        DMSO
        Solvent mass                       7.8130E+01 g/mol
          :  Hamiltonian                  GFN1-xTB          :
 * total energy  :   -58.4699353 Eh     change       -0.2529461E-09 Eh
 * total energy  :   -58.4849214 Eh     change       -0.1498613E-01 Eh
 * total energy  :   -58.4940266 Eh     change       -0.9105211E-02 Eh
 * total energy  :   -58.4963087 Eh     change       -0.2282071E-02 Eh
 * total energy  :   -58.4989824 Eh     change       -0.2673708E-02 Eh
 * total energy  :   -58.5003386 Eh     change       -0.1356230E-02 Eh
 * total energy  :   -58.5018890 Eh     change       -0.1550397E-02 Eh
 * total energy  :   -58.5031636 Eh     change       -0.1274581E-02 Eh
 * total energy  :   -58.5042486 Eh     change       -0.1085037E-02 Eh
 * total energy  :   -58.5050487 Eh     change       -0.8001000E-03 Eh
 * total energy  :   -58.5074072 Eh     change       -0.2040748E-04 Eh
 * total energy  :   -58.5074252 Eh     change       -0.1797465E-04 Eh
 * total energy  :   -58.5074624 Eh     change       -0.3718819E-04 Eh
 * total energy  :   -58.5074813 Eh     change       -0.1892565E-04 Eh
 * total energy  :   -58.5074984 Eh     change       -0.1711285E-04 Eh
 * total energy  :   -58.5075124 Eh     change       -0.1396829E-04 Eh
 * total energy  :   -58.5075210 Eh     change       -0.8541554E-05 Eh
 * total energy  :   -58.5075270 Eh     change       -0.6009395E-05 Eh
 * total energy  :   -58.5075317 Eh     change       -0.4720001E-05 Eh
   *** GEOMETRY OPTIMIZATION CONVERGED AFTER 34 ITERATIONS ***

 final structure:
================
33
 xtb: 6.5.1 (579679a)
C            4.78073949242310        0.57203045261495        0.91149696399792
O            3.70539542729618       -0.15202553593815        0.34868204097265
C            2.47213137538378        0.55097856399403        0.33022513226431
O            2.44645673066716        1.71591075200488        0.80350147603778
C            1.45900909354945       -0.17407728467597       -0.26486874905243
C            1.54410056699068       -1.58280455885561       -0.71105653955348
O            2.62052347279601       -1.95709550342971       -1.55346252246749
C            0.52450016221836       -2.43520365543615       -0.46247617105590
O            0.25652797383377       -3.63323623523733       -0.74949962274710
N           -0.57007685089635       -1.72608171603088        0.31690495402132
C           -0.88553124297295       -0.46102034495065        0.00499766469749
C           -2.36435924879220       -0.08047023600406        0.13300957965128
C           -2.57005680423711        0.60778706315663        1.49012159746356
C           -2.90756673194417        0.78902779865407       -1.01197870057483
N           -3.13297561838324       -1.33090547292411        0.15449063476095
N            0.11285149856473        0.35622828797841       -0.25743420769233
C           -0.06148388562734        1.74512256125975       -0.66903878981625
H            4.98383289708152        1.49136502088873        0.34748468959091
H            4.57611851492807        0.84557436047712        1.95494364389513
H            5.66219109231708       -0.07060664273653        0.87737965278574
H            3.43494842104814       -1.58466255777921       -1.18250204549664
H           -1.37893105725036       -2.32475379924548        0.45781389637982
H           -1.95852372066200        1.50492223075622        1.57042292359107
H           -3.61515024478383        0.89077288500365        1.60299654169355
H           -2.30169033266787       -0.07553837402547        2.29582830108083
H           -2.53177202676861        0.44236408187142       -1.97373841952661
H           -3.99389673940265        0.70846655547476       -1.01860391620294
H           -2.65853897197996        1.83948577045006       -0.88383042314193
H           -4.00967067615064       -1.16838017897439        0.62569738280665
H           -3.35546448517793       -1.60478475721847       -0.79397776739861
H           -0.46415451489190        1.78833401452550       -1.68177611090626
H            0.90608645882149        2.24433353808053       -0.65457330817133
H           -0.72557202533317        2.26894491627333        0.01542321811444

          :  Hamiltonian                  GFN1-xTB          :
         :: total energy             -58.507531687864 Eh    ::
         :: gradient norm              0.000633342725 Eh/a0 ::
         :: HOMO-LUMO gap              1.052520366541 eV    ::
         :: SCC energy               -59.050437120596 Eh    ::
         :: -> Gsolv                  -0.126336530784 Eh    ::
         :: repulsion energy           0.562526113025 Eh    ::

    * Orbital Energies and Occupations

         #    Occupation            Energy/Eh            Energy/eV
      -------------------------------------------------------------
         1        2.0000           -0.7827917             -21.3008
       ...           ...                  ...                  ...
        36        2.0000           -0.4842274             -13.1765
        37        2.0000           -0.4740671             -12.9000
        38        2.0000           -0.4722138             -12.8496
        39        2.0000           -0.4635158             -12.6129
        40        2.0000           -0.4578028             -12.4574
        41        2.0000           -0.4343420             -11.8190
        42        2.0000           -0.4311329             -11.7317
        43        2.0000           -0.4134789             -11.2513
        44        2.0000           -0.4074313             -11.0868
        45        2.0000           -0.3960699             -10.7776
        46        2.0000           -0.3748426             -10.2000
        47        2.0000           -0.3506681              -9.5422
        48        2.0000           -0.2879423              -7.8353 (HOMO)
        49                         -0.2492629              -6.7828 (LUMO)
        50                         -0.1555792              -4.2335
        51                         -0.1328027              -3.6137
        52                         -0.1216548              -3.3104
        53                         -0.1121618              -3.0521
        54                         -0.1084732              -2.9517
        55                         -0.1052771              -2.8647
        56                         -0.0884840              -2.4078
        57                         -0.0793041              -2.1580
        58                         -0.0680369              -1.8514
        59                         -0.0502257              -1.3667
       ...                                ...                  ...
       100                          0.7754468              21.1010
      -------------------------------------------------------------
                  HL-Gap            0.0386794 Eh            1.0525 eV

Wiberg/Mayer (AO) data.
largest (>0.10) Wiberg bond orders for each atom

     #   Z sym  total        # sym  WBO       # sym  WBO       # sym  WBO
 ---------------------------------------------------------------------------
     1   6 C    3.917 --    20 H    0.987    19 H    0.981    18 H    0.981
                             2 O    0.948
     2   8 O    2.066 --     1 C    0.948     3 C    0.909
     3   6 C    3.879 --     5 C    1.439     4 O    1.389     2 O    0.909
     4   8 O    1.744 --     3 C    1.389     5 C    0.149
     5   6 C    3.750 --     3 C    1.439     6 C    1.024    16 N    0.928
                             4 O    0.149
     6   6 C    3.813 --     8 C    1.577     5 C    1.024     7 O    0.938
                             9 O    0.189
     7   8 O    1.903 --     6 C    0.938    21 H    0.864
     8   6 C    3.894 --     6 C    1.577     9 O    1.372    10 N    0.793
     9   8 O    1.709 --     8 C    1.372     6 C    0.189
    10   7 N    3.315 --    11 C    1.298    22 H    0.898     8 C    0.793
                            16 N    0.139
    11   6 C    3.934 --    16 N    1.430    10 N    1.298    12 C    0.968
    12   6 C    3.967 --    14 C    0.989    13 C    0.986    15 N    0.985
                            11 C    0.968
    13   6 C    3.995 --    12 C    0.986    25 H    0.985    24 H    0.984
                            23 H    0.981
    14   6 C    3.993 --    12 C    0.989    26 H    0.985    27 H    0.983
                            28 H    0.980
    15   7 N    2.989 --    12 C    0.985    30 H    0.944    29 H    0.943
    16   7 N    3.533 --    11 C    1.430    17 C    0.945     5 C    0.928
                            10 N    0.139
    17   6 C    3.948 --    31 H    0.979    33 H    0.978    32 H    0.972
                            16 N    0.945
    18   1 H    1.021 --     1 C    0.981
    19   1 H    1.022 --     1 C    0.981
    20   1 H    1.019 --     1 C    0.987
    21   1 H    0.914 --     7 O    0.864
    22   1 H    0.983 --    10 N    0.898
    23   1 H    1.005 --    13 C    0.981
    24   1 H    1.001 --    13 C    0.984
    25   1 H    1.004 --    13 C    0.985
    26   1 H    1.003 --    14 C    0.985
    27   1 H    1.004 --    14 C    0.983
    28   1 H    1.006 --    14 C    0.980
    29   1 H    0.958 --    15 N    0.943
    30   1 H    0.958 --    15 N    0.944
    31   1 H    1.008 --    17 C    0.979
    32   1 H    1.026 --    17 C    0.972
    33   1 H    1.011 --    17 C    0.978
 ---------------------------------------------------------------------------

           -------------------------------------------------
          | TOTAL ENERGY              -58.507531687864 Eh   |
          | GRADIENT NORM               0.000633342725 Eh/α |
          | HOMO-LUMO GAP               1.052520366541 eV   |
           -------------------------------------------------

 * finished run on 2023/06/20 at 14:59:04.047
