   * xtb version 6.5.1 (579679a) compiled by 'ehlert@majestix' on 2022-07-11
          program call               : /lustre/hpc/kemi/ree/PhD/git/ReactivityQM/dep/xtb-6.5.1/bin/xtb --gfn 1 /lustre/hpc/kemi/ree/PhD/git/ReactivityQM/calculations/R02deprot/reac01prodN14/conf15/R02deprot_reac01prodN14_conf15_gfn1.xyz --opt --vfukui --chrg 0 --uhf 0 --alpb DMSO

   ID    Z sym.   atoms
    1    6 C      1, 3, 5, 7-10, 12, 14, 17-19, 22, 24
    2    8 O      2, 4, 13, 20, 23, 25
    3    7 N      6, 11, 15, 16, 21
    4    1 H      26-42

      * Solvation model:               ALPB
        Solvent                        DMSO
        Solvent mass                       7.8130E+01 g/mol
          :  Hamiltonian                  GFN1-xTB          :
 * total energy  :   -82.9159200 Eh     change       -0.3906564E-10 Eh
 * total energy  :   -82.9262194 Eh     change       -0.1029939E-01 Eh
 * total energy  :   -82.9296957 Eh     change       -0.3476247E-02 Eh
 * total energy  :   -82.9301916 Eh     change       -0.4958989E-03 Eh
 * total energy  :   -82.9306305 Eh     change       -0.4388943E-03 Eh
 * total energy  :   -82.9308636 Eh     change       -0.2331746E-03 Eh
 * total energy  :   -82.9310794 Eh     change       -0.2157784E-03 Eh
 * total energy  :   -82.9312995 Eh     change       -0.2200764E-03 Eh
 * total energy  :   -82.9314897 Eh     change       -0.1902034E-03 Eh
 * total energy  :   -82.9316313 Eh     change       -0.1415927E-03 Eh
 * total energy  :   -82.9332725 Eh     change       -0.1019627E-04 Eh
 * total energy  :   -82.9332813 Eh     change       -0.8757698E-05 Eh
 * total energy  :   -82.9332884 Eh     change       -0.7172933E-05 Eh
 * total energy  :   -82.9332944 Eh     change       -0.5925415E-05 Eh
 * total energy  :   -82.9332996 Eh     change       -0.5202906E-05 Eh
 * total energy  :   -82.9333046 Eh     change       -0.5073765E-05 Eh
 * total energy  :   -82.9333100 Eh     change       -0.5337467E-05 Eh
 * total energy  :   -82.9333157 Eh     change       -0.5698298E-05 Eh
 * total energy  :   -82.9333187 Eh     change       -0.3066477E-05 Eh
   *** GEOMETRY OPTIMIZATION CONVERGED AFTER 94 ITERATIONS ***

 final structure:
================
42
 xtb: 6.5.1 (579679a)
C            6.47787963822598        0.40768165657019       -1.36694937771744
O            5.10677925195101        0.28787375213611       -0.97258637270319
C            4.79253227716082        0.74920154090497        0.22788016523420
O            5.60584067381629        1.25503971790765        0.98256159891416
C            3.35739669005477        0.60379321720065        0.57579705778049
N            2.54218897099798        0.01225482427648       -0.31166859333423
C            1.24707295721093       -0.08310626023174        0.00883809798742
C            0.37814657459022       -0.76963941907260       -1.02758426799321
C            0.58380891220745       -0.11111550735011       -2.39803123735073
C            0.75324477944409       -2.25877685567458       -1.07376204093108
N           -1.00895086174285       -0.61235703795295       -0.60140550615540
C           -2.06056651750227       -1.09537589795902       -1.27320413177947
O           -2.02774979105191       -1.74878057659312       -2.30434613497892
C           -3.35833515257276       -0.74042665517317       -0.62842449939385
N           -4.57080658713095       -1.10771516448682       -1.08815599355340
N           -5.46370616021274       -0.61720554939677       -0.31444731770969
C           -4.82719528218152        0.13336476792612        0.73417260618778
C           -5.22572112561439        1.60880393418896        0.64710167116364
C           -5.14247192935246       -0.47915573412024        2.10025897092316
O           -3.43224264810114       -0.00614312262572        0.45031170181147
N            0.67812992053440        0.34005223551227        1.11168729586416
C            1.42912017748392        0.94463834318964        2.09559180872624
O            0.93645315572366        1.33590946945969        3.14731054696167
C            2.87241859630851        1.08370223241358        1.78990793013229
O            3.63281072982852        1.66419556615871        2.70482008294371
H            7.10986025495576       -0.18205608483370       -0.69946176994321
H            6.54224450095927        0.02905286016769       -2.38479864650157
H            6.78737418364703        1.45435123769782       -1.32791797132625
H            0.02292622472750       -0.64417027491319       -3.16344214466020
H            1.64402031978996       -0.13739011714630       -2.64496051082129
H            0.25129813725426        0.92523401093248       -2.36610370742528
H            1.81540397044936       -2.34716653215932       -1.29650096032829
H            0.55052408923997       -2.72337684763726       -0.11006569116882
H            0.18110932990158       -2.76954729628138       -1.84600929966091
H           -1.14495088683988       -0.09895808028708        0.26509157930593
H           -4.70159794473390        2.16900298292588        1.41755462110258
H           -6.29920960585609        1.69532740219643        0.79396329663070
H           -4.95797863111535        1.99727549851811       -0.33302684641308
H           -4.61598152690237        0.07645819507869        2.87234125807254
H           -4.82011768916521       -1.51807875930525        2.11338912564064
H           -6.21409742035611       -0.42562036956920        2.27394516292444
H            4.57310044396583        1.70294869740023        2.40771644354152

          :  Hamiltonian                  GFN1-xTB          :
         :: total energy             -82.933318733482 Eh    ::
         :: gradient norm              0.000153870450 Eh/a0 ::
         :: HOMO-LUMO gap              0.057082605257 eV    ::
         :: SCC energy               -83.689792762696 Eh    ::
         :: -> Gsolv                  -0.054098140002 Eh    ::
         :: repulsion energy           0.781793655421 Eh    ::

    * Orbital Energies and Occupations

         #    Occupation            Energy/Eh            Energy/eV
      -------------------------------------------------------------
         1        2.0000           -0.8861851             -24.1143
       ...           ...                  ...                  ...
        55        2.0000           -0.5112698             -13.9124
        56        2.0000           -0.5027492             -13.6805
        57        2.0000           -0.5011397             -13.6367
        58        2.0000           -0.4980948             -13.5538
        59        2.0000           -0.4866693             -13.2429
        60        2.0000           -0.4790993             -13.0370
        61        2.0000           -0.4767111             -12.9720
        62        2.0000           -0.4668748             -12.7043
        63        2.0000           -0.4665188             -12.6946
        64        2.0000           -0.4564296             -12.4201
        65        2.0000           -0.4465281             -12.1506
        66        1.9980           -0.4146608             -11.2835
        67        1.5030           -0.4091428             -11.1333 (HOMO)
        68        0.4990           -0.4070451             -11.0763 (LUMO)
        69                         -0.3216129              -8.7515
        70                         -0.3128558              -8.5132
        71                         -0.2711326              -7.3779
        72                         -0.2273267              -6.1859
        73                         -0.2203374              -5.9957
        74                         -0.1492727              -4.0619
        75                         -0.1455963              -3.9619
        76                         -0.1401900              -3.8148
        77                         -0.1366177              -3.7176
        78                         -0.1215428              -3.3073
       ...                                ...                  ...
       134                          0.7131442              19.4056
      -------------------------------------------------------------
                  HL-Gap            0.0020977 Eh            0.0571 eV

Wiberg/Mayer (AO) data.
largest (>0.10) Wiberg bond orders for each atom

     #   Z sym  total        # sym  WBO       # sym  WBO       # sym  WBO
 ---------------------------------------------------------------------------
     1   6 C    3.866 --    27 H    0.986    28 H    0.979    26 H    0.979
                             2 O    0.892
     2   8 O    2.218 --     3 C    1.139     1 C    0.892     4 O    0.130
     3   6 C    3.841 --     4 O    1.607     2 O    1.139     5 C    1.010
     4   8 O    1.938 --     3 C    1.607     2 O    0.130
     5   6 C    3.917 --    24 C    1.355     6 N    1.320     3 C    1.010
     6   7 N    2.843 --     5 C    1.320     7 C    1.319
     7   6 C    3.914 --    21 N    1.474     6 N    1.319     8 C    0.981
     8   6 C    3.924 --     7 C    0.981     9 C    0.977    10 C    0.970
                            11 N    0.925
     9   6 C    3.983 --    31 H    0.986    30 H    0.982    29 H    0.982
                             8 C    0.977
    10   6 C    3.982 --    33 H    0.986    32 H    0.984    34 H    0.981
                             8 C    0.970
    11   7 N    3.379 --    12 C    1.291     8 C    0.925    35 H    0.868
                            13 O    0.200
    12   6 C    3.921 --    13 O    1.565    11 N    1.291    14 C    0.982
    13   8 O    1.883 --    12 C    1.565    11 N    0.200
    14   6 C    3.633 --    15 N    1.296    20 O    1.197    12 C    0.982
    15   7 N    2.992 --    16 N    1.559    14 C    1.296
    16   7 N    2.711 --    15 N    1.559    17 C    1.025
    17   6 C    3.834 --    16 N    1.025    19 C    0.938    18 C    0.936
                            20 O    0.870
    18   6 C    3.940 --    38 H    0.982    37 H    0.981    36 H    0.980
                            17 C    0.936
    19   6 C    3.941 --    40 H    0.982    41 H    0.982    39 H    0.980
                            17 C    0.938
    20   8 O    2.224 --    14 C    1.197    17 C    0.870
    21   7 N    2.955 --     7 C    1.474    22 C    1.152
    22   6 C    3.874 --    23 O    1.590    21 N    1.152    24 C    1.026
    23   8 O    1.774 --    22 C    1.590
    24   6 C    3.730 --     5 C    1.355    25 O    1.165    22 C    1.026
    25   8 O    2.064 --    24 C    1.165    42 H    0.770
    26   1 H    1.006 --     1 C    0.979
    27   1 H    1.010 --     1 C    0.986
    28   1 H    1.006 --     1 C    0.979
    29   1 H    1.007 --     9 C    0.982
    30   1 H    1.011 --     9 C    0.982
    31   1 H    1.001 --     9 C    0.986
    32   1 H    1.006 --    10 C    0.984
    33   1 H    1.002 --    10 C    0.986
    34   1 H    1.008 --    10 C    0.981
    35   1 H    0.956 --    11 N    0.868
    36   1 H    0.995 --    18 C    0.980
    37   1 H    0.997 --    18 C    0.981
    38   1 H    0.996 --    18 C    0.982
    39   1 H    0.996 --    19 C    0.980
    40   1 H    0.996 --    19 C    0.982
    41   1 H    0.997 --    19 C    0.982
    42   1 H    0.849 --    25 O    0.770
 ---------------------------------------------------------------------------

           -------------------------------------------------
          | TOTAL ENERGY              -82.933318733482 Eh   |
          | GRADIENT NORM               0.000153870450 Eh/α |
          | HOMO-LUMO GAP               0.057082605257 eV   |
           -------------------------------------------------

 * finished run on 2023/06/20 at 18:24:19.887
