   * xtb version 6.5.1 (579679a) compiled by 'ehlert@majestix' on 2022-07-11
          program call               : /lustre/hpc/kemi/ree/PhD/git/ReactivityQM/dep/xtb-6.5.1/bin/xtb --gfn 1 /lustre/hpc/kemi/ree/PhD/git/ReactivityQM/calculations/RaltegravirCLI/reac01prodE04/conf07/RaltegravirCLI_reac01prodE04_conf07_gfn1.xyz --opt --vfukui --chrg -1 --uhf 0 --alpb DMSO

   ID    Z sym.   atoms
    1    6 C      1, 2, 5-7
    2    7 N      3, 4
    3    8 O      8, 10
    4   17 Cl     9
    5    1 H      11-16

      * Solvation model:               ALPB
        Solvent                        DMSO
        Solvent mass                       7.8130E+01 g/mol
          :  Hamiltonian                  GFN1-xTB          :
 * total energy  :   -34.1197565 Eh     change       -0.9798384E-11 Eh
 * total energy  :   -34.1272418 Eh     change       -0.7485234E-02 Eh
 * total energy  :   -34.1313544 Eh     change       -0.4112612E-02 Eh
 * total energy  :   -34.1324790 Eh     change       -0.1124660E-02 Eh
 * total energy  :   -34.1329762 Eh     change       -0.4971364E-03 Eh
 * total energy  :   -34.1332217 Eh     change       -0.2455588E-03 Eh
 * total energy  :   -34.1336208 Eh     change       -0.3990680E-03 Eh
 * total energy  :   -34.1345017 Eh     change       -0.8808999E-03 Eh
 * total energy  :   -34.1354338 Eh     change       -0.9321564E-03 Eh
 * total energy  :   -34.1376650 Eh     change       -0.2231178E-02 Eh
 * total energy  :   -34.1504119 Eh     change       -0.1440510E-04 Eh
 * total energy  :   -34.1504197 Eh     change       -0.7727009E-05 Eh
 * total energy  :   -34.1504346 Eh     change       -0.1490650E-04 Eh
 * total energy  :   -34.1504393 Eh     change       -0.4711445E-05 Eh
 * total energy  :   -34.1504471 Eh     change       -0.7795124E-05 Eh
 * total energy  :   -34.1504539 Eh     change       -0.6860364E-05 Eh
 * total energy  :   -34.1504604 Eh     change       -0.6445659E-05 Eh
 * total energy  :   -34.1504676 Eh     change       -0.7176480E-05 Eh
 * total energy  :   -34.1504725 Eh     change       -0.4915330E-05 Eh
   *** GEOMETRY OPTIMIZATION CONVERGED AFTER 57 ITERATIONS ***

 final structure:
================
16
 xtb: 6.5.1 (579679a)
C            2.74595976758402       -0.06494987839222        0.07044551496810
C            1.27317869520666       -0.06913370330939       -0.14185530436535
N            0.63225696029588        0.79024373244159       -0.83288598401725
N           -0.75725285156839        0.42580680692977       -0.77755266140482
C           -1.46285593941420        1.53828151146292       -0.11936723211890
C           -0.78194642000715       -0.80331893946055       -0.00264525386557
C           -1.63675631136314       -1.83998138089256       -0.12191493582231
O           -1.73954554408826       -2.95839214039080        0.36344755652865
Cl          -3.23907192906243       -1.20516150086353       -1.03556358211628
O            0.55194918854564       -1.04554612133512        0.43175319758746
H            3.19587820104494        0.75260982891685       -0.48735020218750
H            3.17574961893023       -1.01090474575685       -0.25807441045785
H            2.96710803195893        0.05621776312922        1.13058437754012
H           -1.32742194814068        2.43373743207483       -0.72358329747870
H           -2.52008637173892        1.28496499254267       -0.06977108123246
H           -1.07714214818316        1.71552734290324        0.88865129844275

          :  Hamiltonian                  GFN1-xTB          :
         :: total energy             -34.150472468458 Eh    ::
         :: gradient norm              0.000872756482 Eh/a0 ::
         :: HOMO-LUMO gap              2.837804820670 eV    ::
         :: SCC energy               -34.421376050292 Eh    ::
         :: -> Gsolv                  -0.093366130931 Eh    ::
         :: repulsion energy           0.278471795733 Eh    ::

    * Orbital Energies and Occupations

         #    Occupation            Energy/Eh            Energy/eV
      -------------------------------------------------------------
         1        2.0000           -0.8469473             -23.0466
       ...           ...                  ...                  ...
        16        2.0000           -0.5181416             -14.0994
        17        2.0000           -0.5143269             -13.9955
        18        2.0000           -0.5125078             -13.9460
        19        2.0000           -0.5108419             -13.9007
        20        2.0000           -0.4935752             -13.4309
        21        2.0000           -0.4753689             -12.9354
        22        2.0000           -0.4442245             -12.0880
        23        2.0000           -0.4404213             -11.9845
        24        2.0000           -0.4343769             -11.8200
        25        2.0000           -0.4298725             -11.6974
        26        2.0000           -0.4169701             -11.3463
        27        2.0000           -0.4040354             -10.9944
        28        2.0000           -0.3256042              -8.8601 (HOMO)
        29                         -0.2213167              -6.0223 (LUMO)
        30                         -0.1869609              -5.0875
        31                         -0.1650968              -4.4925
        32                         -0.1272361              -3.4623
        33                         -0.0991712              -2.6986
        34                         -0.0607382              -1.6528
        35                         -0.0601414              -1.6365
        36                         -0.0475804              -1.2947
        37                         -0.0417452              -1.1359
        38                         -0.0139084              -0.3785
        39                          0.0198164               0.5392
       ...                                ...                  ...
        57                          0.8064035              21.9434
      -------------------------------------------------------------
                  HL-Gap            0.1042874 Eh            2.8378 eV

Wiberg/Mayer (AO) data.
largest (>0.10) Wiberg bond orders for each atom

     #   Z sym  total        # sym  WBO       # sym  WBO       # sym  WBO
 ---------------------------------------------------------------------------
     1   6 C    3.993 --     2 C    1.017    11 H    0.986    12 H    0.972
                            13 H    0.970
     2   6 C    3.903 --     3 N    1.726    10 O    1.072     1 C    1.017
     3   7 N    2.955 --     2 C    1.726     4 N    0.989    10 O    0.125
     4   7 N    3.082 --     3 N    0.989     6 C    0.969     5 C    0.960
     5   6 C    3.975 --    14 H    0.989    15 H    0.986    16 H    0.984
                             4 N    0.960
     6   6 C    3.718 --     7 C    1.574     4 N    0.969    10 O    0.889
                             8 O    0.186
     7   6 C    3.871 --     6 C    1.574     8 O    1.568     9 Cl   0.612
     8   8 O    1.923 --     7 C    1.568     6 C    0.186     9 Cl   0.119
     9  17 Cl   0.799 --     7 C    0.612     8 O    0.119
    10   8 O    2.185 --     2 C    1.072     6 C    0.889     3 N    0.125
    11   1 H    1.004 --     1 C    0.986
    12   1 H    1.002 --     1 C    0.972
    13   1 H    1.002 --     1 C    0.970
    14   1 H    1.021 --     5 C    0.989
    15   1 H    1.034 --     5 C    0.986
    16   1 H    1.014 --     5 C    0.984
 ---------------------------------------------------------------------------

           -------------------------------------------------
          | TOTAL ENERGY              -34.150472468458 Eh   |
          | GRADIENT NORM               0.000872756482 Eh/α |
          | HOMO-LUMO GAP               2.837804820670 eV   |
           -------------------------------------------------

 * finished run on 2023/06/20 at 14:53:32.304
