   * xtb version 6.5.1 (579679a) compiled by 'ehlert@majestix' on 2022-07-11
          program call               : /lustre/hpc/kemi/ree/PhD/git/ReactivityQM/dep/xtb-6.5.1/bin/xtb --gfn 1 /lustre/hpc/kemi/ree/PhD/git/ReactivityQM/calculations/R01/reac01prodN07/conf03/R01_reac01prodN07_conf03_gfn1.xyz --opt --vfukui --chrg 1 --uhf 0 --alpb DMSO

   ID    Z sym.   atoms
    1    6 C      1, 3, 5, 8-10
    2    8 O      2, 4, 11
    3    7 N      6, 7
    4    1 H      12-20

      * Solvation model:               ALPB
        Solvent                        DMSO
        Solvent mass                       7.8130E+01 g/mol
          :  Hamiltonian                  GFN1-xTB          :
 * total energy  :   -37.5560357 Eh     change       -0.3751666E-11 Eh
 * total energy  :   -37.5687225 Eh     change       -0.1268682E-01 Eh
 * total energy  :   -37.5735741 Eh     change       -0.4851523E-02 Eh
 * total energy  :   -37.5742580 Eh     change       -0.6839283E-03 Eh
 * total energy  :   -37.5746287 Eh     change       -0.3707334E-03 Eh
 * total energy  :   -37.5746819 Eh     change       -0.5313224E-04 Eh
 * total energy  :   -37.5747206 Eh     change       -0.3873529E-04 Eh
 * total energy  :   -37.5747418 Eh     change       -0.2120916E-04 Eh
 * total energy  :   -37.5747533 Eh     change       -0.1155059E-04 Eh
 * total energy  :   -37.5747578 Eh     change       -0.4436238E-05 Eh
   *** GEOMETRY OPTIMIZATION CONVERGED AFTER 10 ITERATIONS ***

 final structure:
================
20
 xtb: 6.5.1 (579679a)
C            4.10463293391442        0.22571575091913       -0.44062702799126
O            2.76729920923965       -0.22828085465070       -0.15031199613706
C            1.78288786619789        0.57175798388324       -0.44338811427855
O            1.82821640145408        1.65768925073811       -0.93611192790599
C            0.45259478671718       -0.08668217441258       -0.05082972735619
N            0.30372586741318       -1.34145840275108        0.49620149572499
N           -0.92857823191699       -1.52160387785685        0.68379233815601
C           -1.66627345194288       -0.38480500734999        0.26713487399264
C           -2.62177727813351       -0.73552495013292       -0.88441542040284
C           -2.40212112711450        0.25912316210532        1.45346881987669
O           -0.65540271057300        0.49992464930905       -0.20156023383811
H            4.28099027781009        1.17685813138138        0.06355519556335
H            4.21510068667368        0.35267340817745       -1.51840866282385
H            4.77175948776674       -0.54717116667337       -0.06725148588699
H           -2.05179216943442       -1.17797329180591       -1.69838366009204
H           -3.10771535608992        0.17704692658585       -1.22172229043501
H           -3.36179535174447       -1.44230361378131       -0.51732065658561
H           -1.68057970226275        0.50106886413577        2.23073650578855
H           -3.13717675266880       -0.44785105425827        1.82972953864005
H           -2.89399738530557        1.16453626643783        1.10571343599110

          :  Hamiltonian                  GFN1-xTB          :
         :: total energy             -37.574757785728 Eh    ::
         :: gradient norm              0.000821521248 Eh/a0 ::
         :: HOMO-LUMO gap              1.771921081030 eV    ::
         :: SCC energy               -37.910587639284 Eh    ::
         :: -> Gsolv                  -0.081328115591 Eh    ::
         :: repulsion energy           0.344248882434 Eh    ::

    * Orbital Energies and Occupations

         #    Occupation            Energy/Eh            Energy/eV
      -------------------------------------------------------------
         1        2.0000           -0.9571904             -26.0465
       ...           ...                  ...                  ...
        18        2.0000           -0.6146657             -16.7259
        19        2.0000           -0.6120949             -16.6559
        20        2.0000           -0.6111094             -16.6291
        21        2.0000           -0.5875390             -15.9877
        22        2.0000           -0.5858691             -15.9423
        23        2.0000           -0.5797427             -15.7756
        24        2.0000           -0.5750189             -15.6471
        25        2.0000           -0.5683602             -15.4659
        26        2.0000           -0.5556428             -15.1198
        27        2.0000           -0.5529811             -15.0474
        28        2.0000           -0.5428745             -14.7724
        29        2.0000           -0.5362384             -14.5918
        30        2.0000           -0.5246696             -14.2770 (HOMO)
        31                         -0.4595527             -12.5051 (LUMO)
        32                         -0.3774728             -10.2716
        33                         -0.2805728              -7.6348
        34                         -0.1700249              -4.6266
        35                         -0.1641816              -4.4676
        36                         -0.1607437              -4.3741
        37                         -0.1201608              -3.2697
        38                         -0.1122477              -3.0544
        39                         -0.0985561              -2.6818
        40                         -0.0958107              -2.6071
        41                         -0.0934031              -2.5416
       ...                                ...                  ...
        62                          0.7398077              20.1312
      -------------------------------------------------------------
                  HL-Gap            0.0651169 Eh            1.7719 eV

Wiberg/Mayer (AO) data.
largest (>0.10) Wiberg bond orders for each atom

     #   Z sym  total        # sym  WBO       # sym  WBO       # sym  WBO
 ---------------------------------------------------------------------------
     1   6 C    3.820 --    14 H    0.983    12 H    0.972    13 H    0.971
                             2 O    0.854
     2   8 O    2.261 --     3 C    1.193     1 C    0.854     4 O    0.173
     3   6 C    3.881 --     4 O    1.720     2 O    1.193     5 C    0.897
     4   8 O    2.013 --     3 C    1.720     2 O    0.173
     5   6 C    3.788 --    11 O    1.393     6 N    1.199     3 C    0.897
     6   7 N    3.022 --     7 N    1.678     5 C    1.199
     7   7 N    2.995 --     6 N    1.678     8 C    1.074
     8   6 C    3.813 --     7 N    1.074     9 C    0.885    10 C    0.883
                            11 O    0.868
     9   6 C    3.942 --    15 H    0.978    17 H    0.975    16 H    0.974
                             8 C    0.885
    10   6 C    3.942 --    18 H    0.978    19 H    0.975    20 H    0.974
                             8 C    0.883
    11   8 O    2.442 --     5 C    1.393     8 C    0.868
    12   1 H    0.996 --     1 C    0.972
    13   1 H    0.995 --     1 C    0.971
    14   1 H    1.002 --     1 C    0.983
    15   1 H    0.989 --     9 C    0.978
    16   1 H    0.989 --     9 C    0.974
    17   1 H    0.989 --     9 C    0.975
    18   1 H    0.989 --    10 C    0.978
    19   1 H    0.989 --    10 C    0.975
    20   1 H    0.989 --    10 C    0.974
 ---------------------------------------------------------------------------

           -------------------------------------------------
          | TOTAL ENERGY              -37.574757785728 Eh   |
          | GRADIENT NORM               0.000821521248 Eh/α |
          | HOMO-LUMO GAP               1.771921081030 eV   |
           -------------------------------------------------

 * finished run on 2023/06/20 at 14:56:43.706
