   * xtb version 6.5.1 (579679a) compiled by 'ehlert@majestix' on 2022-07-11
          program call               : /lustre/hpc/kemi/ree/PhD/git/ReactivityQM/dep/xtb-6.5.1/bin/xtb --gfn 1 /lustre/hpc/kemi/ree/PhD/git/ReactivityQM/calculations/RaltegravirCLI/reac02prodE08/conf13/RaltegravirCLI_reac02prodE08_conf13_gfn1.xyz --opt --vfukui --chrg -1 --uhf 0 --alpb DMSO

   ID    Z sym.   atoms
    1    6 C      1-5, 7, 9, 11-14, 17, 18, 20, 22-24
    2    7 N      6, 10, 15, 16
    3    8 O      8, 19, 21
    4    9 F      25
    5    1 H      26-47

      * Solvation model:               ALPB
        Solvent                        DMSO
        Solvent mass                       7.8130E+01 g/mol
          :  Hamiltonian                  GFN1-xTB          :
 * total energy  :   -80.1728745 Eh     change       -0.2434035E-09 Eh
 * total energy  :   -80.1820989 Eh     change       -0.9224382E-02 Eh
 * total energy  :   -80.1845124 Eh     change       -0.2413577E-02 Eh
 * total energy  :   -80.1849703 Eh     change       -0.4578196E-03 Eh
 * total energy  :   -80.1853802 Eh     change       -0.4099004E-03 Eh
 * total energy  :   -80.1855811 Eh     change       -0.2008837E-03 Eh
 * total energy  :   -80.1857323 Eh     change       -0.1512151E-03 Eh
 * total energy  :   -80.1858159 Eh     change       -0.8363136E-04 Eh
 * total energy  :   -80.1858769 Eh     change       -0.6096662E-04 Eh
 * total energy  :   -80.1859279 Eh     change       -0.5103112E-04 Eh
 * total energy  :   -80.1861780 Eh     change       -0.1462945E-04 Eh
 * total energy  :   -80.1861903 Eh     change       -0.1230999E-04 Eh
 * total energy  :   -80.1861975 Eh     change       -0.7184025E-05 Eh
 * total energy  :   -80.1862070 Eh     change       -0.9503746E-05 Eh
 * total energy  :   -80.1862145 Eh     change       -0.7540486E-05 Eh
 * total energy  :   -80.1862222 Eh     change       -0.7706655E-05 Eh
 * total energy  :   -80.1862301 Eh     change       -0.7885560E-05 Eh
 * total energy  :   -80.1862362 Eh     change       -0.6098751E-05 Eh
 * total energy  :   -80.1862410 Eh     change       -0.4810613E-05 Eh
   *** GEOMETRY OPTIMIZATION CONVERGED AFTER 30 ITERATIONS ***

 final structure:
================
47
 xtb: 6.5.1 (579679a)
C            7.12272397038745       -1.15996168988039        0.48769965855344
C            5.96734515726430       -0.69583023446318       -0.44633595289943
C            4.61506160816588       -1.04821671190783        0.13526308979869
C            3.73694398447093       -0.10920170378302        0.60208168644741
C            2.43793522577617       -0.55471042578543        1.23353142134924
N            1.30951020624570       -0.13076816721213        0.40001356565800
C            0.04519766629373       -0.40069441005697        0.77957967730856
O           -0.19753874184823       -1.02574235516710        1.81753839094353
C           -1.04259745824222        0.07189354363976       -0.11957630040240
N           -2.30501741365133       -0.21081070830526        0.33676714808385
C           -3.36808479782478        0.10142715539785       -0.32812791890477
C           -4.69480610552505       -0.30656575846390        0.30411538003351
C           -5.13387638966586       -1.65468888858949       -0.28699175751108
C           -4.50033058868483       -0.46138946145945        1.82241610532152
N           -5.72855222815739        0.69292937820554        0.04374894981267
N           -3.30346853054471        0.71365712833267       -1.56220246635088
C           -4.47447898917360        1.04620414059673       -2.36864115098798
C           -2.07176231866409        1.08752643111290       -2.09828638778059
O           -1.98157407758989        1.67599069134669       -3.18630438047261
C           -0.91904816261152        0.73505295450046       -1.32306238066574
O            0.27233857549335        1.09801948985037       -1.87659818638451
C            3.96562671384971        1.27684930646720        0.47610955040229
C            5.13217333777432        1.69809305416823       -0.20832080359135
C            6.01642639467509        0.78613203089667       -0.66195966665552
F            7.12082344870211        1.21139787816897       -1.37114897153849
H            8.08619293050592       -0.88139469402989        0.05969690897663
H            7.02230710447135       -0.69350225047921        1.46790831836146
H            7.09018499457882       -2.24254378625556        0.60960726251164
H            6.12244840413413       -1.21998416311233       -1.40816516020486
H            4.39260367610015       -2.10775958178903        0.21710688660334
H            2.32159400962447       -0.11372178994448        2.23417602068080
H            2.40128166669880       -1.64622071698644        1.34942815046155
H            1.51658981682969        0.41816271314273       -0.41890042565797
H           -5.32830073054018       -1.57105768058152       -1.35482688420855
H           -6.04564940890773       -1.99118461752975        0.20415838311960
H           -4.35446811110880       -2.40025447057122       -0.12998298210052
H           -4.13645692016911        0.47191665374327        2.25035469919934
H           -3.77907533664392       -1.24996540506501        2.03660313266599
H           -5.45313003935059       -0.71337799295240        2.28421047061006
H           -5.58758464437194        1.49622266251113        0.64270982579205
H           -6.63237943701804        0.30362604870712        0.26886015093382
H           -5.19574747149345        0.23496906805473       -2.34447224719009
H           -4.14510931366759        1.20992022702299       -3.39531169132961
H           -4.94547497167159        1.95327069575664       -1.99060245057579
H            0.07364186747255        1.55107211236399       -2.71675067190989
H            3.25346149697138        2.00147208667646        0.84879169045401
H            5.30210293064304        2.75374321370742       -0.39507668676184

          :  Hamiltonian                  GFN1-xTB          :
         :: total energy             -80.186241044164 Eh    ::
         :: gradient norm              0.000317913723 Eh/a0 ::
         :: HOMO-LUMO gap              0.100055528614 eV    ::
         :: SCC energy               -81.043814748439 Eh    ::
         :: -> Gsolv                  -0.102193235043 Eh    ::
         :: repulsion energy           0.886695600269 Eh    ::

    * Orbital Energies and Occupations

         #    Occupation            Energy/Eh            Energy/eV
      -------------------------------------------------------------
         1        2.0000           -0.8040784             -21.8801
       ...           ...                  ...                  ...
        56        2.0000           -0.4562623             -12.4155
        57        2.0000           -0.4438133             -12.0768
        58        2.0000           -0.4417999             -12.0220
        59        2.0000           -0.4336357             -11.7998
        60        2.0000           -0.4295465             -11.6886
        61        2.0000           -0.4237728             -11.5314
        62        2.0000           -0.4207519             -11.4492
        63        2.0000           -0.4118326             -11.2065
        64        2.0000           -0.4075565             -11.0902
        65        2.0000           -0.4045977             -11.0097
        66        2.0000           -0.3970601             -10.8046
        67        2.0000           -0.3850651             -10.4782
        68        1.7476           -0.2948160              -8.0224 (HOMO)
        69        0.2524           -0.2911391              -7.9223 (LUMO)
        70                         -0.2520507              -6.8586
        71                         -0.2011858              -5.4745
        72                         -0.2008334              -5.4650
        73                         -0.1316759              -3.5831
        74                         -0.1270555              -3.4574
        75                         -0.1222248              -3.3259
        76                         -0.1165761              -3.1722
        77                         -0.1105550              -3.0084
        78                         -0.0949676              -2.5842
        79                         -0.0934267              -2.5423
       ...                                ...                  ...
       144                          0.7075482              19.2534
      -------------------------------------------------------------
                  HL-Gap            0.0036770 Eh            0.1001 eV

Wiberg/Mayer (AO) data.
largest (>0.10) Wiberg bond orders for each atom

     #   Z sym  total        # sym  WBO       # sym  WBO       # sym  WBO
 ---------------------------------------------------------------------------
     1   6 C    3.972 --    27 H    0.989    28 H    0.988    26 H    0.987
                             2 C    0.964
     2   6 C    3.992 --    24 C    1.007     3 C    1.005     1 C    0.964
                            29 H    0.961
     3   6 C    3.815 --     4 C    1.590     2 C    1.005    30 H    0.974
     4   6 C    3.985 --     3 C    1.590    22 C    1.307     5 C    0.997
     5   6 C    3.943 --     4 C    0.997    32 H    0.975    31 H    0.969
                             6 N    0.932
     6   7 N    3.323 --     7 C    1.260     5 C    0.932    33 H    0.895
                             8 O    0.164
     7   6 C    3.882 --     8 O    1.525     6 N    1.260     9 C    1.023
     8   8 O    1.799 --     7 C    1.525     6 N    0.164
     9   6 C    3.868 --    20 C    1.425    10 N    1.185     7 C    1.023
    10   7 N    3.028 --    11 C    1.580     9 C    1.185
    11   6 C    3.895 --    10 N    1.580    16 N    1.146    12 C    0.976
    12   6 C    3.966 --    14 C    0.989    13 C    0.984    15 N    0.982
                            11 C    0.976
    13   6 C    3.993 --    36 H    0.986    12 C    0.984    35 H    0.984
                            34 H    0.980
    14   6 C    3.995 --    12 C    0.989    39 H    0.987    37 H    0.985
                            38 H    0.983
    15   7 N    2.976 --    12 C    0.982    40 H    0.943    41 H    0.942
    16   7 N    3.423 --    11 C    1.146    18 C    1.094    17 C    0.937
                            19 O    0.115
    17   6 C    3.934 --    42 H    0.979    44 H    0.977    43 H    0.977
                            16 N    0.937
    18   6 C    3.872 --    19 O    1.489    20 C    1.152    16 N    1.094
    19   8 O    1.822 --    18 C    1.489    16 N    0.115
    20   6 C    3.829 --     9 C    1.425    18 C    1.152    21 O    1.041
    21   8 O    2.024 --    20 C    1.041    45 H    0.814
    22   6 C    3.768 --     4 C    1.307    23 C    1.270    46 H    0.977
    23   6 C    3.990 --    24 C    1.628    22 C    1.270    47 H    0.971
    24   6 C    3.695 --    23 C    1.628     2 C    1.007    25 F    0.860
    25   9 F    0.966 --    24 C    0.860
    26   1 H    1.010 --     1 C    0.987
    27   1 H    1.017 --     1 C    0.989
    28   1 H    1.010 --     1 C    0.988
    29   1 H    1.007 --     2 C    0.961
    30   1 H    1.002 --     3 C    0.974
    31   1 H    1.015 --     5 C    0.969
    32   1 H    1.014 --     5 C    0.975
    33   1 H    0.965 --     6 N    0.895
    34   1 H    1.006 --    13 C    0.980
    35   1 H    1.001 --    13 C    0.984
    36   1 H    1.005 --    13 C    0.986
    37   1 H    1.009 --    14 C    0.985
    38   1 H    1.017 --    14 C    0.983
    39   1 H    1.005 --    14 C    0.987
    40   1 H    0.959 --    15 N    0.943
    41   1 H    0.957 --    15 N    0.942
    42   1 H    1.022 --    17 C    0.979
    43   1 H    1.013 --    17 C    0.977
    44   1 H    1.019 --    17 C    0.977
    45   1 H    0.861 --    21 O    0.814
    46   1 H    1.002 --    22 C    0.977
    47   1 H    1.006 --    23 C    0.971
 ---------------------------------------------------------------------------

           -------------------------------------------------
          | TOTAL ENERGY              -80.186241044164 Eh   |
          | GRADIENT NORM               0.000317913723 Eh/α |
          | HOMO-LUMO GAP               0.100055528614 eV   |
           -------------------------------------------------

 * finished run on 2023/06/20 at 15:06:52.643
