                         Program Version 5.0.1 -  RELEASE  -
|  1> # ORCA input file
|  2> ! SP r2SCAN-3c CPCM
|  3>
|  4> %maxcore 1875.0
|  5> %pal nprocs 4 end
|  6> %cpcm smd true SMDsolvent "DMSO" end
|  7>
|  8> *xyz 1 1
|  9> C      -3.025963    1.449090   -1.405732
| 10> N      -2.057169    0.348749   -1.351335
| 11> C      -1.262710    0.233749   -2.455735
| 12> O      -1.332322    0.944733   -3.444580
| 13> C      -0.270117   -0.857707   -2.419761
| 14> O       0.470555   -1.000052   -3.459426
| 15> C      -0.053363   -1.638967   -1.234775
| 16> C       0.189110   -3.145024   -1.446156
| 17> C       1.410035   -1.156034   -0.671732
| 18> O       2.337868   -1.096427   -1.428184
| 19> N       1.371323   -0.942803    0.624628
| 20> C       2.600205   -0.620081    1.364678
| 21> C       3.161359    0.704053    0.909159
| 22> C       2.346640    1.835042    0.903950
| 23> C       2.846130    3.059682    0.488190
| 24> C       4.168335    3.124822    0.082887
| 25> F       4.657521    4.303435   -0.323249
| 26> C       5.002648    2.021448    0.076504
| 27> C       4.485849    0.802380    0.492364
| 28> N      -1.009265   -1.417254   -0.217912
| 29> C      -1.920293   -0.513516   -0.269622
| 30> C      -2.822093   -0.416324    0.954103
| 31> C      -2.444740    0.838990    1.753558
| 32> C      -2.615987   -1.659368    1.834377
| 33> N      -4.217519   -0.335991    0.540417
| 34> H      -2.565048    2.348132   -0.998697
| 35> H      -3.907754    1.181072   -0.828556
| 36> H      -3.287171    1.615725   -2.450128
| 37> H       0.249326   -0.335091   -4.152002
| 38> H       0.981320   -3.289640   -2.178110
| 39> H      -0.733750   -3.597374   -1.802434
| 40> H       0.466533   -3.597847   -0.497404
| 41> H       0.506800   -1.068055    1.128741
| 42> H       2.317427   -0.583206    2.418131
| 43> H       3.323437   -1.426294    1.213908
| 44> H       1.314102    1.751714    1.220205
| 45> H       2.226121    3.946221    0.479268
| 46> H       6.030320    2.113898   -0.250169
| 47> H       5.117991   -0.077788    0.490305
| 48> H      -2.995404    0.845689    2.692969
| 49> H      -1.377435    0.829344    1.971264
| 50> H      -2.686039    1.745207    1.202522
| 51> H      -3.308325   -1.619917    2.673574
| 52> H      -1.596948   -1.691973    2.215751
| 53> H      -2.804922   -2.563960    1.259024
| 54> H      -4.789742   -0.174983    1.358473
| 55> H      -4.496878   -1.217496    0.130766
| 56> **                         ****END OF INPUT****

CARTESIAN COORDINATES (ANGSTROEM)
---------------------------------
  C     -3.025963    1.449090   -1.405732
  N     -2.057169    0.348749   -1.351335
  C     -1.262710    0.233749   -2.455735
  O     -1.332322    0.944733   -3.444580
  C     -0.270117   -0.857707   -2.419761
  O      0.470555   -1.000052   -3.459426
  C     -0.053363   -1.638967   -1.234775
  C      0.189110   -3.145024   -1.446156
  C      1.410035   -1.156034   -0.671732
  O      2.337868   -1.096427   -1.428184
  N      1.371323   -0.942803    0.624628
  C      2.600205   -0.620081    1.364678
  C      3.161359    0.704053    0.909159
  C      2.346640    1.835042    0.903950
  C      2.846130    3.059682    0.488190
  C      4.168335    3.124822    0.082887
  F      4.657521    4.303435   -0.323249
  C      5.002648    2.021448    0.076504
  C      4.485849    0.802380    0.492364
  N     -1.009265   -1.417254   -0.217912
  C     -1.920293   -0.513516   -0.269622
  C     -2.822093   -0.416324    0.954103
  C     -2.444740    0.838990    1.753558
  C     -2.615987   -1.659368    1.834377
  N     -4.217519   -0.335991    0.540417
  H     -2.565048    2.348132   -0.998697
  H     -3.907754    1.181072   -0.828556
  H     -3.287171    1.615725   -2.450128
  H      0.249326   -0.335091   -4.152002
  H      0.981320   -3.289640   -2.178110
  H     -0.733750   -3.597374   -1.802434
  H      0.466533   -3.597847   -0.497404
  H      0.506800   -1.068055    1.128741
  H      2.317427   -0.583206    2.418131
  H      3.323437   -1.426294    1.213908
  H      1.314102    1.751714    1.220205
  H      2.226121    3.946221    0.479268
  H      6.030320    2.113898   -0.250169
  H      5.117991   -0.077788    0.490305
  H     -2.995404    0.845689    2.692969
  H     -1.377435    0.829344    1.971264
  H     -2.686039    1.745207    1.202522
  H     -3.308325   -1.619917    2.673574
  H     -1.596948   -1.691973    2.215751
  H     -2.804922   -2.563960    1.259024
  H     -4.789742   -0.174983    1.358473
  H     -4.496878   -1.217496    0.130766

 Total Charge           Charge          ....    1
 Multiplicity           Mult            ....    1
 Number of Electrons    NEL             ....  184
 Basis Dimension        Dim             ....  625

ORBITAL ENERGIES
----------------

  NO   OCC          E(Eh)            E(eV)
   0   2.0000     -24.506664      -666.8602
   1   2.0000     -19.082080      -519.2498
   2   2.0000     -18.974839      -516.3316
   3   2.0000     -18.971184      -516.2321
   4   2.0000     -14.264990      -388.1701
   5   2.0000     -14.216457      -386.8495
   6   2.0000     -14.180572      -385.8730
   7   2.0000     -14.142482      -384.8365
   8   2.0000     -10.196534      -277.4618
   9   2.0000     -10.183956      -277.1195
  10   2.0000     -10.176774      -276.9241
  11   2.0000     -10.147001      -276.1139
  12   2.0000     -10.137085      -275.8441
  13   2.0000     -10.123567      -275.4763
  14   2.0000     -10.092101      -274.6200
  15   2.0000     -10.083592      -274.3885
  16   2.0000     -10.063506      -273.8419
  17   2.0000     -10.052247      -273.5355
  18   2.0000     -10.052214      -273.5347
  19   2.0000     -10.046832      -273.3882
  20   2.0000     -10.046680      -273.3841
  21   2.0000     -10.045519      -273.3525
  22   2.0000     -10.044444      -273.3232
  23   2.0000     -10.025529      -272.8085
  24   2.0000     -10.016071      -272.5512
  25   2.0000      -1.199010       -32.6267
  26   2.0000      -1.139886       -31.0179
  27   2.0000      -1.060711       -28.8634
  28   2.0000      -1.059908       -28.8416
  29   2.0000      -0.993179       -27.0258
  30   2.0000      -0.936001       -25.4699
  31   2.0000      -0.909287       -24.7429
  32   2.0000      -0.875667       -23.8281
  33   2.0000      -0.840218       -22.8635
  34   2.0000      -0.809817       -22.0362
  35   2.0000      -0.754196       -20.5227
  36   2.0000      -0.739794       -20.1308
  37   2.0000      -0.731759       -19.9122
  38   2.0000      -0.729052       -19.8385
  39   2.0000      -0.685035       -18.6407
  40   2.0000      -0.681149       -18.5350
  41   2.0000      -0.673763       -18.3340
  42   2.0000      -0.659486       -17.9455
  43   2.0000      -0.624549       -16.9948
  44   2.0000      -0.612551       -16.6684
  45   2.0000      -0.601058       -16.3556
  46   2.0000      -0.590500       -16.0683
  47   2.0000      -0.570776       -15.5316
  48   2.0000      -0.565259       -15.3815
  49   2.0000      -0.544312       -14.8115
  50   2.0000      -0.536535       -14.5999
  51   2.0000      -0.519693       -14.1416
  52   2.0000      -0.488989       -13.3061
  53   2.0000      -0.481895       -13.1130
  54   2.0000      -0.474501       -12.9118
  55   2.0000      -0.470200       -12.7948
  56   2.0000      -0.465523       -12.6675
  57   2.0000      -0.455724       -12.4009
  58   2.0000      -0.452346       -12.3090
  59   2.0000      -0.444004       -12.0820
  60   2.0000      -0.440731       -11.9929
  61   2.0000      -0.437079       -11.8935
  62   2.0000      -0.431939       -11.7537
  63   2.0000      -0.420569       -11.4443
  64   2.0000      -0.418961       -11.4005
  65   2.0000      -0.416644       -11.3375
  66   2.0000      -0.410929       -11.1819
  67   2.0000      -0.403518       -10.9803
  68   2.0000      -0.398428       -10.8418
  69   2.0000      -0.390076       -10.6145
  70   2.0000      -0.387653       -10.5486
  71   2.0000      -0.381928       -10.3928
  72   2.0000      -0.376339       -10.2407
  73   2.0000      -0.365590        -9.9482
  74   2.0000      -0.364533        -9.9195
  75   2.0000      -0.360078        -9.7982
  76   2.0000      -0.355986        -9.6869
  77   2.0000      -0.348730        -9.4894
  78   2.0000      -0.346918        -9.4401
  79   2.0000      -0.341127        -9.2825
  80   2.0000      -0.337794        -9.1918
  81   2.0000      -0.336419        -9.1544
  82   2.0000      -0.317665        -8.6441
  83   2.0000      -0.316697        -8.6178
  84   2.0000      -0.291405        -7.9295
  85   2.0000      -0.280618        -7.6360
  86   2.0000      -0.270878        -7.3710
  87   2.0000      -0.266008        -7.2385
  88   2.0000      -0.254547        -6.9266
  89   2.0000      -0.250494        -6.8163
  90   2.0000      -0.228943        -6.2299
  91   2.0000      -0.216083        -5.8799
  92   0.0000      -0.175383        -4.7724
  93   0.0000      -0.066638        -1.8133
  94   0.0000      -0.046857        -1.2750
  95   0.0000      -0.035460        -0.9649
  96   0.0000      -0.025274        -0.6877

MULLIKEN ATOMIC CHARGES
-----------------------
   0 C :   -0.472589
   1 N :    0.294852
   2 C :    0.127859
   3 O :   -0.456888
   4 C :    0.414418
   5 O :   -0.268159
   6 C :   -0.032819
   7 C :   -0.514375
   8 C :    0.190636
   9 O :   -0.376950
  10 N :   -0.083562
  11 C :   -0.283589
  12 C :    0.141942
  13 C :   -0.181218
  14 C :   -0.310492
  15 C :    0.362951
  16 F :   -0.231543
  17 C :   -0.299383
  18 C :   -0.209030
  19 N :   -0.173507
  20 C :    0.050651
  21 C :    0.229405
  22 C :   -0.522802
  23 C :   -0.553907
  24 N :   -0.699629
  25 H :    0.213254
  26 H :    0.242353
  27 H :    0.194522
  28 H :    0.397080
  29 H :    0.208931
  30 H :    0.207734
  31 H :    0.209778
  32 H :    0.328286
  33 H :    0.207706
  34 H :    0.198765
  35 H :    0.187732
  36 H :    0.197895
  37 H :    0.198215
  38 H :    0.190378
  39 H :    0.186461
  40 H :    0.186226
  41 H :    0.182194
  42 H :    0.175155
  43 H :    0.174770
  44 H :    0.177564
  45 H :    0.299270
  46 H :    0.293463
Sum of atomic charges:    1.0000000

LOEWDIN ATOMIC CHARGES
----------------------
   0 C :   -0.083107
   1 N :   -0.602506
   2 C :    0.387325
   3 O :   -0.432277
   4 C :    0.408935
   5 O :   -0.293866
   6 C :    0.135438
   7 C :   -0.284757
   8 C :    0.398520
   9 O :   -0.371102
  10 N :   -0.564308
  11 C :    0.020753
  12 C :   -0.077678
  13 C :   -0.133586
  14 C :   -0.154417
  15 C :    0.204366
  16 F :   -0.291783
  17 C :   -0.157769
  18 C :   -0.137744
  19 N :   -0.613879
  20 C :    0.400041
  21 C :    0.066531
  22 C :   -0.347586
  23 C :   -0.355298
  24 N :   -0.699932
  25 H :    0.201900
  26 H :    0.225289
  27 H :    0.209899
  28 H :    0.339149
  29 H :    0.187542
  30 H :    0.185160
  31 H :    0.190015
  32 H :    0.308838
  33 H :    0.214038
  34 H :    0.205770
  35 H :    0.189925
  36 H :    0.195078
  37 H :    0.195059
  38 H :    0.188939
  39 H :    0.174062
  40 H :    0.173577
  41 H :    0.173199
  42 H :    0.165176
  43 H :    0.169169
  44 H :    0.172028
  45 H :    0.259378
  46 H :    0.256498

  Mayer bond orders larger than 0.100000
B(  0-C ,  1-N ) :   0.8423 B(  0-C , 25-H ) :   0.9254 B(  0-C , 26-H ) :   0.9097
B(  0-C , 27-H ) :   0.9357 B(  1-N ,  2-C ) :   1.1459 B(  1-N , 20-C ) :   1.1721
B(  2-C ,  3-O ) :   1.8190 B(  2-C ,  4-C ) :   0.9735 B(  4-C ,  5-O ) :   1.2438
B(  4-C ,  6-C ) :   1.0446 B(  4-C ,  8-C ) :   0.1738 B(  4-C ,  9-O ) :   0.1210
B(  5-O ,  6-C ) :   0.1071 B(  5-O , 28-H ) :   0.7863 B(  6-C ,  7-C ) :   0.9954
B(  6-C ,  8-C ) :   0.5964 B(  6-C , 19-N ) :   0.8046 B(  7-C , 29-H ) :   0.9401
B(  7-C , 30-H ) :   0.9597 B(  7-C , 31-H ) :   0.9302 B(  8-C ,  9-O ) :   1.8628
B(  8-C , 10-N ) :   1.3167 B( 10-N , 11-C ) :   0.8669 B( 10-N , 32-H ) :   0.8632
B( 11-C , 12-C ) :   0.8150 B( 11-C , 33-H ) :   0.9535 B( 11-C , 34-H ) :   0.9866
B( 12-C , 13-C ) :   1.3908 B( 12-C , 18-C ) :   1.3931 B( 13-C , 14-C ) :   1.3892
B( 13-C , 35-H ) :   0.9433 B( 14-C , 15-C ) :   1.3797 B( 14-C , 36-H ) :   0.9378
B( 15-C , 16-F ) :   0.8895 B( 15-C , 17-C ) :   1.4054 B( 17-C , 18-C ) :   1.3788
B( 17-C , 37-H ) :   0.9362 B( 18-C , 38-H ) :   0.9398 B( 19-N , 20-C ) :   1.7889
B( 20-C , 21-C ) :   0.9452 B( 21-C , 22-C ) :   0.9308 B( 21-C , 23-C ) :   0.9670
B( 21-C , 24-N ) :   0.7330 B( 22-C , 39-H ) :   0.9571 B( 22-C , 40-H ) :   0.9664
B( 22-C , 41-H ) :   0.9447 B( 23-C , 42-H ) :   0.9657 B( 23-C , 43-H ) :   0.9733
B( 23-C , 44-H ) :   0.9639 B( 24-N , 45-H ) :   0.9098 B( 24-N , 46-H ) :   0.9082

Dispersion correction           -0.022451367
FINAL SINGLE POINT ENERGY     -1205.207207207506

DIPOLE MOMENT
-------------
                                X             Y             Z
Electronic contribution:     21.25049      10.33529     -14.41749
Nuclear contribution   :    -24.59161     -12.79143      15.52865
                        -----------------------------------------
Total Dipole Moment    :     -3.34112      -2.45614       1.11116
                        -----------------------------------------
Magnitude (a.u.)       :      4.29306
Magnitude (Debye)      :     10.91210

Rotational constants in cm-1:     0.010669     0.004625     0.004474
Rotational constants in MHz :   319.849916   138.663041   134.135405

                             ****ORCA TERMINATED NORMALLY****
TOTAL RUN TIME: 0 days 0 hours 3 minutes 14 seconds 964 msec
