   * xtb version 6.5.1 (579679a) compiled by 'ehlert@majestix' on 2022-07-11
          program call               : /lustre/hpc/kemi/ree/PhD/git/ReactivityQM/dep/xtb-6.5.1/bin/xtb --gfn 1 /lustre/hpc/kemi/ree/PhD/git/ReactivityQM/calculations/RaltegravirCLI/reac02prodN06/conf19/RaltegravirCLI_reac02prodN06_conf19_gfn1.xyz --opt --vfukui --chrg 1 --uhf 0 --alpb DMSO

   ID    Z sym.   atoms
    1    6 C      1, 3, 5, 7-9, 12-16, 18, 19, 21-24
    2    7 N      2, 11, 20, 25
    3    8 O      4, 6, 10
    4    9 F      17
    5    1 H      26-47

      * Solvation model:               ALPB
        Solvent                        DMSO
        Solvent mass                       7.8130E+01 g/mol
          :  Hamiltonian                  GFN1-xTB          :
 * total energy  :   -79.4660724 Eh     change       -0.2737195E-08 Eh
 * total energy  :   -79.4803537 Eh     change       -0.1428134E-01 Eh
 * total energy  :   -79.4860522 Eh     change       -0.5698496E-02 Eh
 * total energy  :   -79.4873920 Eh     change       -0.1339763E-02 Eh
 * total energy  :   -79.4883599 Eh     change       -0.9679238E-03 Eh
 * total energy  :   -79.4887410 Eh     change       -0.3810519E-03 Eh
 * total energy  :   -79.4891005 Eh     change       -0.3595258E-03 Eh
 * total energy  :   -79.4893891 Eh     change       -0.2886075E-03 Eh
 * total energy  :   -79.4896087 Eh     change       -0.2195643E-03 Eh
 * total energy  :   -79.4897892 Eh     change       -0.1804926E-03 Eh
 * total energy  :   -79.4954676 Eh     change       -0.1490686E-04 Eh
 * total energy  :   -79.4954845 Eh     change       -0.1690557E-04 Eh
 * total energy  :   -79.4954961 Eh     change       -0.1156978E-04 Eh
 * total energy  :   -79.4955137 Eh     change       -0.1756675E-04 Eh
 * total energy  :   -79.4955239 Eh     change       -0.1020833E-04 Eh
 * total energy  :   -79.4955376 Eh     change       -0.1375187E-04 Eh
 * total energy  :   -79.4955497 Eh     change       -0.1209115E-04 Eh
 * total energy  :   -79.4955553 Eh     change       -0.5634861E-05 Eh
 * total energy  :   -79.4955598 Eh     change       -0.4488793E-05 Eh
   *** GEOMETRY OPTIMIZATION CONVERGED AFTER 76 ITERATIONS ***

 final structure:
================
47
 xtb: 6.5.1 (579679a)
C           -3.02596253501151        1.44908950431719       -1.40573188310599
N           -2.05716947982609        0.34874858429042       -1.35133546913545
C           -1.26270968879897        0.23374936514026       -2.45573475139312
O           -1.33232189389471        0.94473324415597       -3.44458045380665
C           -0.27011736373103       -0.85770731935683       -2.41976089289406
O            0.47055548114738       -1.00005215570632       -3.45942611039453
C           -0.05336263122531       -1.63896711220644       -1.23477483042660
C            0.18911045265447       -3.14502438459731       -1.44615620981957
C            1.41003504302739       -1.15603385050720       -0.67173217848273
O            2.33786793930331       -1.09642746115963       -1.42818409862812
N            1.37132262538266       -0.94280318895407        0.62462832171593
C            2.60020495557274       -0.62008083136933        1.36467794907088
C            3.16135906996804        0.70405342185685        0.90915934094179
C            2.34664013517715        1.83504157108239        0.90394954759340
C            2.84612966016328        3.05968232299753        0.48819046520122
C            4.16833530923448        3.12482160307131        0.08288708912737
F            4.65752083090374        4.30343450846555       -0.32324949904435
C            5.00264795125252        2.02144784141796        0.07650429852202
C            4.48584929658496        0.80237988823586        0.49236423379852
N           -1.00926507046420       -1.41725437928239       -0.21791246429279
C           -1.92029277018205       -0.51351583085209       -0.26962231421765
C           -2.82209278303771       -0.41632432342014        0.95410347511572
C           -2.44473962188745        0.83899025357846        1.75355780680744
C           -2.61598721935038       -1.65936823604056        1.83437683920625
N           -4.21751917091879       -0.33599112415181        0.54041748744290
H           -2.56504806924435        2.34813215547745       -0.99869713136076
H           -3.90775371090009        1.18107210395936       -0.82855563896090
H           -3.28717138171293        1.61572468605724       -2.45012792830145
H            0.24932626556874       -0.33509051327071       -4.15200155020370
H            0.98132044092616       -3.28964034070443       -2.17810963560787
H           -0.73374989951286       -3.59737409452585       -1.80243385235492
H            0.46653276662137       -3.59784681009103       -0.49740386291820
H            0.50680026495167       -1.06805544498440        1.12874112186365
H            2.31742735571772       -0.58320552350911        2.41813070220225
H            3.32343694773289       -1.42629437258932        1.21390770168585
H            1.31410212228553        1.75171367049805        1.22020545233332
H            2.22612075019642        3.94622126786320        0.47926849182848
H            6.03032001919475        2.11389823202144       -0.25016886659903
H            5.11799124706918       -0.07778783043426        0.49030543673298
H           -2.99540384508731        0.84568882377304        2.69296858282818
H           -1.37743463204708        0.82934407252054        1.97126413893536
H           -2.68603912813102        1.74520747507729        1.20252191636510
H           -3.30832521762176       -1.61991699761210        2.67357354442607
H           -1.59694828954081       -1.69197267297214        2.21575103537416
H           -2.80492218161811       -2.56395952824016        1.25902353044568
H           -4.78974161721209       -0.17498254462642        1.35847347844396
H           -4.49687772969756       -1.21749572466528        0.13076563395579

          :  Hamiltonian                  GFN1-xTB          :
         :: total energy             -79.495559826054 Eh    ::
         :: gradient norm              0.000453244178 Eh/a0 ::
         :: HOMO-LUMO gap              0.531217205721 eV    ::
         :: SCC energy               -80.394337959566 Eh    ::
         :: -> Gsolv                  -0.104981666440 Eh    ::
         :: repulsion energy           0.931418670823 Eh    ::

    * Orbital Energies and Occupations

         #    Occupation            Energy/Eh            Energy/eV
      -------------------------------------------------------------
         1        2.0000           -0.8976062             -24.4251
       ...           ...                  ...                  ...
        55        2.0000           -0.5176261             -14.0853
        56        2.0000           -0.5161794             -14.0460
        57        2.0000           -0.5154098             -14.0250
        58        2.0000           -0.5092093             -13.8563
        59        2.0000           -0.5015552             -13.6480
        60        2.0000           -0.4921433             -13.3919
        61        2.0000           -0.4876198             -13.2688
        62        2.0000           -0.4840954             -13.1729
        63        2.0000           -0.4816981             -13.1077
        64        2.0000           -0.4759264             -12.9506
        65        2.0000           -0.4641192             -12.6293
        66        2.0000           -0.4499312             -12.2433
        67        1.9999           -0.4283758             -11.6567 (HOMO)
        68        0.0001           -0.4088539             -11.1255 (LUMO)
        69                         -0.3194111              -8.6916
        70                         -0.2887562              -7.8575
        71                         -0.2859020              -7.7798
        72                         -0.2804146              -7.6305
        73                         -0.2571033              -6.9961
        74                         -0.1594310              -4.3383
        75                         -0.1550743              -4.2198
        76                         -0.1503752              -4.0919
        77                         -0.1489615              -4.0534
        78                         -0.1417473              -3.8571
       ...                                ...                  ...
       144                          0.7343460              19.9826
      -------------------------------------------------------------
                  HL-Gap            0.0195219 Eh            0.5312 eV

Wiberg/Mayer (AO) data.
largest (>0.10) Wiberg bond orders for each atom

     #   Z sym  total        # sym  WBO       # sym  WBO       # sym  WBO
 ---------------------------------------------------------------------------
     1   6 C    3.894 --    28 H    0.974    26 H    0.967    27 H    0.958
                             2 N    0.913
     2   7 N    3.531 --     3 C    1.192    21 C    1.106     1 C    0.913
                             4 O    0.163
     3   6 C    3.926 --     4 O    1.588     2 N    1.192     5 C    1.010
     4   8 O    1.948 --     3 C    1.588     2 N    0.163
     5   6 C    3.833 --     6 O    1.319     7 C    1.143     3 C    1.010
     6   8 O    2.261 --     5 C    1.319    29 H    0.756
     7   6 C    3.964 --     5 C    1.143    20 N    1.040     8 C    0.920
                             9 C    0.693
     8   6 C    3.965 --    32 H    0.983    30 H    0.982    31 H    0.976
                             7 C    0.920
     9   6 C    3.908 --    10 O    1.670    11 N    1.365     7 C    0.693
    10   8 O    2.053 --     9 C    1.670    11 N    0.177
    11   7 N    3.393 --     9 C    1.365    12 C    0.900    33 H    0.873
                            10 O    0.177
    12   6 C    3.918 --    13 C    1.001    35 H    0.971    34 H    0.964
                            11 N    0.900
    13   6 C    3.986 --    19 C    1.419    14 C    1.411    12 C    1.001
    14   6 C    3.994 --    15 C    1.451    13 C    1.411    36 H    0.972
                            18 C    0.110
    15   6 C    3.991 --    14 C    1.451    16 C    1.394    37 H    0.968
                            19 C    0.109
    16   6 C    3.860 --    18 C    1.401    15 C    1.394    17 F    0.933
    17   9 F    1.064 --    16 C    0.933
    18   6 C    3.991 --    19 C    1.442    16 C    1.401    38 H    0.968
                            14 C    0.110
    19   6 C    3.990 --    18 C    1.442    13 C    1.419    39 H    0.970
                            15 C    0.109
    20   7 N    3.040 --    21 C    1.657     7 C    1.040
    21   6 C    3.903 --    20 N    1.657     2 N    1.106    22 C    0.973
    22   6 C    3.961 --    24 C    0.989    25 N    0.985    23 C    0.978
                            21 C    0.973
    23   6 C    3.991 --    41 H    0.985    42 H    0.981    40 H    0.980
                            22 C    0.978
    24   6 C    3.992 --    22 C    0.989    43 H    0.983    45 H    0.983
                            44 H    0.982
    25   7 N    3.001 --    22 C    0.985    47 H    0.936    46 H    0.932
    26   1 H    0.998 --     1 C    0.967
    27   1 H    1.023 --     1 C    0.958
    28   1 H    1.001 --     1 C    0.974
    29   1 H    0.805 --     6 O    0.756
    30   1 H    0.997 --     8 C    0.982
    31   1 H    0.995 --     8 C    0.976
    32   1 H    0.997 --     8 C    0.983
    33   1 H    0.943 --    11 N    0.873
    34   1 H    0.995 --    12 C    0.964
    35   1 H    0.998 --    12 C    0.971
    36   1 H    1.001 --    14 C    0.972
    37   1 H    0.996 --    15 C    0.968
    38   1 H    0.996 --    18 C    0.968
    39   1 H    0.998 --    19 C    0.970
    40   1 H    0.997 --    23 C    0.980
    41   1 H    1.002 --    23 C    0.985
    42   1 H    1.001 --    23 C    0.981
    43   1 H    1.001 --    24 C    0.983
    44   1 H    1.007 --    24 C    0.982
    45   1 H    1.005 --    24 C    0.983
    46   1 H    0.947 --    25 N    0.932
    47   1 H    0.950 --    25 N    0.936
 ---------------------------------------------------------------------------

           -------------------------------------------------
          | TOTAL ENERGY              -79.495559826054 Eh   |
          | GRADIENT NORM               0.000453244178 Eh/α |
          | HOMO-LUMO GAP               0.531217205721 eV   |
           -------------------------------------------------

 * finished run on 2023/06/20 at 15:23:35.450
