                         Program Version 5.0.1 -  RELEASE  -
|  1> # ORCA input file
|  2> ! SP r2SCAN-3c CPCM
|  3>
|  4> %maxcore 1875.0
|  5> %pal nprocs 4 end
|  6> %cpcm smd true SMDsolvent "DMSO" end
|  7>
|  8> *xyz -1 1
|  9> C      -5.460908    2.372061    2.360657
| 10> O      -4.425396    1.619505    1.746384
| 11> C      -4.686878    1.192874    0.473825
| 12> O      -5.764269    1.478402   -0.078587
| 13> C      -3.644903    0.409990   -0.125163
| 14> N      -2.495973    0.170092    0.596863
| 15> C      -1.541895   -0.549275    0.103676
| 16> C      -0.359913   -0.783694    1.041168
| 17> C      -0.585892   -2.111315    1.782782
| 18> C      -0.304232    0.354920    2.077398
| 19> N       0.910322   -0.868245    0.326307
| 20> C       1.307872    0.295419   -0.411623
| 21> O       0.448627    1.099831   -0.861526
| 22> C       2.679378    0.382358   -0.628193
| 23> N       3.380815    1.343140   -1.329129
| 24> N       4.652053    0.970698   -1.196145
| 25> C       5.691614    1.758735   -1.815662
| 26> C       4.806422   -0.124869   -0.488233
| 27> C       6.067282   -0.818918   -0.139018
| 28> O       3.598263   -0.573062   -0.083709
| 29> N      -1.639085   -1.150364   -1.129913
| 30> C      -0.609642   -2.020803   -1.685200
| 31> C      -2.744644   -0.916630   -1.987746
| 32> O      -2.757357   -1.427469   -3.122380
| 33> C      -3.770074   -0.109374   -1.423639
| 34> O      -4.873647    0.132279   -2.191211
| 35> H      -6.386194    1.789081    2.411023
| 36> H      -5.656226    3.294145    1.803278
| 37> H      -5.125064    2.615407    3.368107
| 38> H      -1.544038   -2.084685    2.300957
| 39> H      -0.584126   -2.953893    1.093505
| 40> H       0.204409   -2.264418    2.515904
| 41> H      -0.235629    1.319354    1.574388
| 42> H       0.567249    0.221914    2.716366
| 43> H      -1.201401    0.344319    2.694710
| 44> H       1.649803   -1.210852    0.924602
| 45> H       5.252594    2.696374   -2.148765
| 46> H       6.481726    1.948927   -1.092303
| 47> H       6.103224    1.217411   -2.667089
| 48> H       5.832168   -1.767292    0.338574
| 49> H       6.665798   -0.217246    0.547305
| 50> H       6.665763   -1.002969   -1.031545
| 51> H       0.151190   -1.432548   -2.204170
| 52> H      -1.077856   -2.700824   -2.398950
| 53> H      -0.134940   -2.604690   -0.902615
| 54> H      -5.506396    0.666196   -1.655264
| 55> **                         ****END OF INPUT****

CARTESIAN COORDINATES (ANGSTROEM)
---------------------------------
  C     -5.460908    2.372061    2.360657
  O     -4.425396    1.619505    1.746384
  C     -4.686878    1.192874    0.473825
  O     -5.764269    1.478402   -0.078587
  C     -3.644903    0.409990   -0.125163
  N     -2.495973    0.170092    0.596863
  C     -1.541895   -0.549275    0.103676
  C     -0.359913   -0.783694    1.041168
  C     -0.585892   -2.111315    1.782782
  C     -0.304232    0.354920    2.077398
  N      0.910322   -0.868245    0.326307
  C      1.307872    0.295419   -0.411623
  O      0.448627    1.099831   -0.861526
  C      2.679378    0.382358   -0.628193
  N      3.380815    1.343140   -1.329129
  N      4.652053    0.970698   -1.196145
  C      5.691614    1.758735   -1.815662
  C      4.806422   -0.124869   -0.488233
  C      6.067282   -0.818918   -0.139018
  O      3.598263   -0.573062   -0.083709
  N     -1.639085   -1.150364   -1.129913
  C     -0.609642   -2.020803   -1.685200
  C     -2.744644   -0.916630   -1.987746
  O     -2.757357   -1.427469   -3.122380
  C     -3.770074   -0.109374   -1.423639
  O     -4.873647    0.132279   -2.191211
  H     -6.386194    1.789081    2.411023
  H     -5.656226    3.294145    1.803278
  H     -5.125064    2.615407    3.368107
  H     -1.544038   -2.084685    2.300957
  H     -0.584126   -2.953893    1.093505
  H      0.204409   -2.264418    2.515904
  H     -0.235629    1.319354    1.574388
  H      0.567249    0.221914    2.716366
  H     -1.201401    0.344319    2.694710
  H      1.649803   -1.210852    0.924602
  H      5.252594    2.696374   -2.148765
  H      6.481726    1.948927   -1.092303
  H      6.103224    1.217411   -2.667089
  H      5.832168   -1.767292    0.338574
  H      6.665798   -0.217246    0.547305
  H      6.665763   -1.002969   -1.031545
  H      0.151190   -1.432548   -2.204170
  H     -1.077856   -2.700824   -2.398950
  H     -0.134940   -2.604690   -0.902615
  H     -5.506396    0.666196   -1.655264

 Total Charge           Charge          ....   -1
 Multiplicity           Mult            ....    1
 Number of Electrons    NEL             ....  194
 Basis Dimension        Dim             ....  649

ORBITAL ENERGIES
----------------

  NO   OCC          E(Eh)            E(eV)
   0   2.0000     -19.012105      -517.3457
   1   2.0000     -18.973633      -516.2988
   2   2.0000     -18.954594      -515.7807
   3   2.0000     -18.915739      -514.7234
   4   2.0000     -18.888285      -513.9764
   5   2.0000     -18.869661      -513.4696
   6   2.0000     -14.264259      -388.1502
   7   2.0000     -14.198322      -386.3560
   8   2.0000     -14.164232      -385.4283
   9   2.0000     -14.139891      -384.7660
  10   2.0000     -14.127269      -384.4225
  11   2.0000     -10.131237      -275.6850
  12   2.0000     -10.126112      -275.5455
  13   2.0000     -10.100917      -274.8599
  14   2.0000     -10.090823      -274.5853
  15   2.0000     -10.079209      -274.2692
  16   2.0000     -10.077034      -274.2100
  17   2.0000     -10.073076      -274.1023
  18   2.0000     -10.070701      -274.0377
  19   2.0000     -10.067397      -273.9478
  20   2.0000     -10.063822      -273.8505
  21   2.0000     -10.047124      -273.3961
  22   2.0000     -10.042218      -273.2626
  23   2.0000     -10.037642      -273.1381
  24   2.0000     -10.012966      -272.4666
  25   2.0000      -9.998984      -272.0862
  26   2.0000      -1.099246       -29.9120
  27   2.0000      -1.041692       -28.3459
  28   2.0000      -1.002421       -27.2773
  29   2.0000      -0.981932       -26.7197
  30   2.0000      -0.972620       -26.4663
  31   2.0000      -0.950207       -25.8564
  32   2.0000      -0.943921       -25.6854
  33   2.0000      -0.921411       -25.0729
  34   2.0000      -0.853257       -23.2183
  35   2.0000      -0.848656       -23.0931
  36   2.0000      -0.816445       -22.2166
  37   2.0000      -0.748012       -20.3544
  38   2.0000      -0.727857       -19.8060
  39   2.0000      -0.708245       -19.2723
  40   2.0000      -0.690660       -18.7938
  41   2.0000      -0.681729       -18.5508
  42   2.0000      -0.657911       -17.9027
  43   2.0000      -0.645731       -17.5712
  44   2.0000      -0.642803       -17.4916
  45   2.0000      -0.605453       -16.4752
  46   2.0000      -0.601045       -16.3553
  47   2.0000      -0.568457       -15.4685
  48   2.0000      -0.545147       -14.8342
  49   2.0000      -0.530130       -14.4256
  50   2.0000      -0.522250       -14.2111
  51   2.0000      -0.495873       -13.4934
  52   2.0000      -0.487433       -13.2637
  53   2.0000      -0.481047       -13.0900
  54   2.0000      -0.474943       -12.9239
  55   2.0000      -0.456404       -12.4194
  56   2.0000      -0.447196       -12.1688
  57   2.0000      -0.432631       -11.7725
  58   2.0000      -0.429619       -11.6905
  59   2.0000      -0.420734       -11.4488
  60   2.0000      -0.417777       -11.3683
  61   2.0000      -0.413930       -11.2636
  62   2.0000      -0.405453       -11.0329
  63   2.0000      -0.401370       -10.9218
  64   2.0000      -0.396288       -10.7835
  65   2.0000      -0.392970       -10.6933
  66   2.0000      -0.385173       -10.4811
  67   2.0000      -0.377876       -10.2825
  68   2.0000      -0.377169       -10.2633
  69   2.0000      -0.373937       -10.1754
  70   2.0000      -0.370281       -10.0759
  71   2.0000      -0.363957        -9.9038
  72   2.0000      -0.359198        -9.7743
  73   2.0000      -0.351206        -9.5568
  74   2.0000      -0.344772        -9.3817
  75   2.0000      -0.342095        -9.3089
  76   2.0000      -0.340005        -9.2520
  77   2.0000      -0.333770        -9.0823
  78   2.0000      -0.330193        -8.9850
  79   2.0000      -0.316649        -8.6165
  80   2.0000      -0.316421        -8.6103
  81   2.0000      -0.312434        -8.5018
  82   2.0000      -0.306985        -8.3535
  83   2.0000      -0.302919        -8.2428
  84   2.0000      -0.300838        -8.1862
  85   2.0000      -0.297625        -8.0988
  86   2.0000      -0.273454        -7.4411
  87   2.0000      -0.253981        -6.9112
  88   2.0000      -0.239702        -6.5226
  89   2.0000      -0.235554        -6.4098
  90   2.0000      -0.222269        -6.0482
  91   2.0000      -0.213362        -5.8059
  92   2.0000      -0.205586        -5.5943
  93   2.0000      -0.202393        -5.5074
  94   2.0000      -0.188673        -5.1341
  95   2.0000      -0.172639        -4.6978
  96   2.0000      -0.074630        -2.0308
  97   0.0000      -0.071170        -1.9366
  98   0.0000      -0.028048        -0.7632
  99   0.0000      -0.002807        -0.0764
 100   0.0000       0.040900         1.1130
 101   0.0000       0.056949         1.5497

MULLIKEN ATOMIC CHARGES
-----------------------
   0 C :   -0.331663
   1 O :   -0.198501
   2 C :    0.153805
   3 O :   -0.510954
   4 C :   -0.048421
   5 N :   -0.132105
   6 C :    0.058280
   7 C :    0.208312
   8 C :   -0.550067
   9 C :   -0.682890
  10 N :   -0.294591
  11 C :   -0.310694
  12 O :   -0.477144
  13 C :    0.220134
  14 N :   -0.497863
  15 N :    0.481365
  16 C :   -0.460787
  17 C :    0.154634
  18 C :   -0.619561
  19 O :   -0.086791
  20 N :    0.296130
  21 C :   -0.465297
  22 C :    0.008013
  23 O :   -0.471919
  24 C :   -0.021196
  25 O :   -0.383809
  26 H :    0.164863
  27 H :    0.164707
  28 H :    0.164973
  29 H :    0.186174
  30 H :    0.176419
  31 H :    0.177502
  32 H :    0.196300
  33 H :    0.171551
  34 H :    0.174250
  35 H :    0.294345
  36 H :    0.201617
  37 H :    0.194425
  38 H :    0.199848
  39 H :    0.198157
  40 H :    0.203627
  41 H :    0.196157
  42 H :    0.174788
  43 H :    0.180171
  44 H :    0.182346
  45 H :    0.361361
Sum of atomic charges:   -1.0000000

LOEWDIN ATOMIC CHARGES
----------------------
   0 C :   -0.052853
   1 O :   -0.611465
   2 C :    0.370282
   3 O :   -0.549866
   4 C :    0.146793
   5 N :   -0.612392
   6 C :    0.362392
   7 C :    0.096568
   8 C :   -0.355447
   9 C :   -0.362359
  10 N :   -0.702622
  11 C :    0.286160
  12 O :   -0.588315
  13 C :    0.340537
  14 N :   -0.352355
  15 N :   -0.612996
  16 C :   -0.050759
  17 C :    0.388113
  18 C :   -0.320375
  19 O :   -0.455816
  20 N :   -0.661176
  21 C :   -0.089676
  22 C :    0.343704
  23 O :   -0.545396
  24 C :    0.227271
  25 O :   -0.501079
  26 H :    0.174011
  27 H :    0.173306
  28 H :    0.178664
  29 H :    0.169500
  30 H :    0.166003
  31 H :    0.166558
  32 H :    0.176609
  33 H :    0.157869
  34 H :    0.167933
  35 H :    0.279863
  36 H :    0.209272
  37 H :    0.200682
  38 H :    0.199475
  39 H :    0.188871
  40 H :    0.187551
  41 H :    0.187802
  42 H :    0.184929
  43 H :    0.196148
  44 H :    0.194781
  45 H :    0.303303

  Mayer bond orders larger than 0.100000
B(  0-C ,  1-O ) :   0.8447 B(  0-C , 26-H ) :   0.9635 B(  0-C , 27-H ) :   0.9625
B(  0-C , 28-H ) :   0.9663 B(  1-O ,  2-C ) :   1.0946 B(  2-C ,  3-O ) :   1.6186
B(  2-C ,  4-C ) :   1.2222 B(  3-O , 45-H ) :   0.1076 B(  4-C ,  5-N ) :   1.0069
B(  4-C , 24-C ) :   1.0750 B(  5-N ,  6-C ) :   1.7118 B(  5-N ,  7-C ) :  -0.1283
B(  5-N ,  9-C ) :   0.1005 B(  6-C ,  7-C ) :   0.7494 B(  6-C , 12-O ) :   0.1265
B(  6-C , 20-N ) :   1.2265 B(  7-C ,  8-C ) :   0.9330 B(  7-C ,  9-C ) :   0.8734
B(  7-C , 10-N ) :   0.7539 B(  8-C , 29-H ) :   0.9808 B(  8-C , 30-H ) :   0.9555
B(  8-C , 31-H ) :   0.9667 B(  9-C , 32-H ) :   0.9822 B(  9-C , 33-H ) :   0.9834
B(  9-C , 34-H ) :   0.9656 B( 10-N , 11-C ) :   0.9546 B( 10-N , 35-H ) :   0.8986
B( 11-C , 12-O ) :   1.7895 B( 11-C , 13-C ) :   0.8698 B( 11-C , 15-N ) :   0.1096
B( 12-O , 13-C ) :  -0.1509 B( 13-C , 14-N ) :   1.4506 B( 13-C , 15-N ) :  -0.1330
B( 13-C , 17-C ) :   0.1324 B( 13-C , 19-O ) :   0.9476 B( 14-N , 15-N ) :   1.4072
B( 14-N , 17-C ) :   0.2142 B( 15-N , 16-C ) :   0.8763 B( 15-N , 17-C ) :   1.5495
B( 16-C , 36-H ) :   0.9492 B( 16-C , 37-H ) :   0.9396 B( 16-C , 38-H ) :   0.9328
B( 17-C , 18-C ) :   0.7975 B( 17-C , 19-O ) :   1.0427 B( 18-C , 39-H ) :   0.9746
B( 18-C , 40-H ) :   0.9531 B( 18-C , 41-H ) :   0.9580 B( 20-N , 21-C ) :   0.8821
B( 20-N , 22-C ) :   0.9499 B( 21-C , 42-H ) :   0.9424 B( 21-C , 43-H ) :   0.9466
B( 21-C , 44-H ) :   0.9343 B( 22-C , 23-O ) :   1.8788 B( 22-C , 24-C ) :   1.1370
B( 24-C , 25-O ) :   1.0894 B( 25-O , 45-H ) :   0.7616

Dispersion correction           -0.021265722
FINAL SINGLE POINT ENERGY     -1308.579504915155

DIPOLE MOMENT
-------------
                                X             Y             Z
Electronic contribution:    -12.00050       2.36822     -10.17136
Nuclear contribution   :     20.40519      -3.69011      13.46629
                        -----------------------------------------
Total Dipole Moment    :      8.40469      -1.32189       3.29494
                        -----------------------------------------
Magnitude (a.u.)       :      9.12375
Magnitude (Debye)      :     23.19073

Rotational constants in cm-1:     0.013640     0.003218     0.003040
Rotational constants in MHz :   408.908511    96.466927    91.130112

                             ****ORCA TERMINATED NORMALLY****
TOTAL RUN TIME: 0 days 0 hours 2 minutes 14 seconds 150 msec
