   * xtb version 6.5.1 (579679a) compiled by 'ehlert@majestix' on 2022-07-11
          program call               : /lustre/hpc/kemi/ree/PhD/git/ReactivityQM/dep/xtb-6.5.1/bin/xtb --gfn 1 /lustre/hpc/kemi/ree/PhD/git/ReactivityQM/calculations/R03/reac02prodE10/conf07/R03_reac02prodE10_conf07_gfn1.xyz --opt --vfukui --chrg -1 --uhf 0 --alpb DMSO

   ID    Z sym.   atoms
    1    6 C      1, 3, 5, 7-10, 12, 14, 17-19, 22, 23, 25
    2    8 O      2, 4, 13, 20, 24, 26
    3    7 N      6, 11, 15, 16, 21
    4    1 H      27-46

      * Solvation model:               ALPB
        Solvent                        DMSO
        Solvent mass                       7.8130E+01 g/mol
          :  Hamiltonian                  GFN1-xTB          :
 * total energy  :   -86.9928365 Eh     change        0.3488765E-10 Eh
 * total energy  :   -87.0051473 Eh     change       -0.1231076E-01 Eh
 * total energy  :   -87.0096445 Eh     change       -0.4497235E-02 Eh
 * total energy  :   -87.0103899 Eh     change       -0.7454004E-03 Eh
 * total energy  :   -87.0112334 Eh     change       -0.8434654E-03 Eh
 * total energy  :   -87.0116170 Eh     change       -0.3836383E-03 Eh
 * total energy  :   -87.0120248 Eh     change       -0.4077698E-03 Eh
 * total energy  :   -87.0122455 Eh     change       -0.2207352E-03 Eh
 * total energy  :   -87.0123640 Eh     change       -0.1185296E-03 Eh
 * total energy  :   -87.0124441 Eh     change       -0.8001612E-04 Eh
 * total energy  :   -87.0134000 Eh     change       -0.1234197E-04 Eh
 * total energy  :   -87.0134096 Eh     change       -0.9620425E-05 Eh
 * total energy  :   -87.0134212 Eh     change       -0.1163720E-04 Eh
 * total energy  :   -87.0134375 Eh     change       -0.1628970E-04 Eh
 * total energy  :   -87.0134537 Eh     change       -0.1617037E-04 Eh
 * total energy  :   -87.0134646 Eh     change       -0.1087250E-04 Eh
 * total energy  :   -87.0134742 Eh     change       -0.9654944E-05 Eh
 * total energy  :   -87.0134820 Eh     change       -0.7775273E-05 Eh
 * total energy  :   -87.0134869 Eh     change       -0.4864933E-05 Eh
   *** GEOMETRY OPTIMIZATION CONVERGED AFTER 35 ITERATIONS ***

 final structure:
================
46
 xtb: 6.5.1 (579679a)
C           -5.46090822356986        2.37206126358383        2.36065654594426
O           -4.42539616999801        1.61950493105266        1.74638393979152
C           -4.68687752762014        1.19287436930986        0.47382528810631
O           -5.76426871368263        1.47840165977629       -0.07858650034572
C           -3.64490254756129        0.40998980162242       -0.12516310786079
N           -2.49597276717033        0.17009208642591        0.59686284072687
C           -1.54189483111824       -0.54927534374179        0.10367632662088
C           -0.35991310883355       -0.78369387094774        1.04116753990731
C           -0.58589230965718       -2.11131509257242        1.78278175823578
C           -0.30423184291916        0.35491965556091        2.07739811818065
N            0.91032200019719       -0.86824509594726        0.32630741662538
C            1.30787197897180        0.29541914783993       -0.41162299673414
O            0.44862679260367        1.09983133744131       -0.86152641583111
C            2.67937837653174        0.38235824129905       -0.62819251342661
N            3.38081506044547        1.34313983540051       -1.32912920277793
N            4.65205250332844        0.97069823624759       -1.19614453531909
C            5.69161427891755        1.75873465590585       -1.81566213386755
C            4.80642218284216       -0.12486931966369       -0.48823278742865
C            6.06728191631323       -0.81891764993156       -0.13901770548587
O            3.59826268751252       -0.57306234948610       -0.08370941702508
N           -1.63908495181617       -1.15036385517179       -1.12991328053323
C           -0.60964169957642       -2.02080284950278       -1.68519974541855
C           -2.74464386411815       -0.91663004896624       -1.98774589054752
O           -2.75735725453492       -1.42746879556932       -3.12237981168816
C           -3.77007374537682       -0.10937359381303       -1.42363929935447
O           -4.87364688288817        0.13227938268359       -2.19121120283121
H           -6.38619436567169        1.78908074384295        2.41102283869701
H           -5.65622593047664        3.29414514085090        1.80327835757262
H           -5.12506415060914        2.61540698538647        3.36810658217268
H           -1.54403797466706       -2.08468544236590        2.30095712489761
H           -0.58412600866534       -2.95389258543218        1.09350505467335
H            0.20440855098082       -2.26441815110001        2.51590440887938
H           -0.23562929650330        1.31935432191021        1.57438797120592
H            0.56724910019708        0.22191356536875        2.71636612191325
H           -1.20140071866450        0.34431868633716        2.69471040288427
H            1.64980337800121       -1.21085182137942        0.92460162451147
H            5.25259421706687        2.69637355824423       -2.14876534188310
H            6.48172606168860        1.94892698800057       -1.09230329448105
H            6.10322412967691        1.21741119758884       -2.66708859632005
H            5.83216752575229       -1.76729200522437        0.33857369349429
H            6.66579829040824       -0.21724632091660        0.54730488816755
H            6.66576325219816       -1.00296911604019       -1.03154534825517
H            0.15119039270186       -1.43254790836216       -2.20416963400779
H           -1.07785579999434       -2.70082404477838       -2.39894993132076
H           -0.13493994795967       -2.60468999570469       -0.90261475779337
H           -5.50639604267964        0.66619646493766       -1.65526439268247

          :  Hamiltonian                  GFN1-xTB          :
         :: total energy             -87.013486860879 Eh    ::
         :: gradient norm              0.000381804810 Eh/a0 ::
         :: HOMO-LUMO gap              0.049391153833 eV    ::
         :: SCC energy               -87.801230410290 Eh    ::
         :: -> Gsolv                  -0.143098877462 Eh    ::
         :: repulsion energy           0.816858510455 Eh    ::

    * Orbital Energies and Occupations

         #    Occupation            Energy/Eh            Energy/eV
      -------------------------------------------------------------
         1        2.0000           -0.8378666             -22.7995
       ...           ...                  ...                  ...
        59        2.0000           -0.4705055             -12.8031
        60        2.0000           -0.4649162             -12.6510
        61        2.0000           -0.4638902             -12.6231
        62        2.0000           -0.4453813             -12.1194
        63        2.0000           -0.4391245             -11.9492
        64        2.0000           -0.4251624             -11.5693
        65        2.0000           -0.4172618             -11.3543
        66        2.0000           -0.4131962             -11.2436
        67        2.0000           -0.4036085             -10.9827
        68        2.0000           -0.3976226             -10.8199
        69        2.0000           -0.3875952             -10.5470
        70        2.0000           -0.3778262             -10.2812
        71        1.4443           -0.2894897              -7.8774 (HOMO)
        72        0.5557           -0.2876746              -7.8280 (LUMO)
        73                         -0.2591553              -7.0520
        74                         -0.2338662              -6.3638
        75                         -0.1944921              -5.2924
        76                         -0.1528945              -4.1605
        77                         -0.1449648              -3.9447
        78                         -0.1379209              -3.7530
        79                         -0.1209746              -3.2919
        80                         -0.1160213              -3.1571
        81                         -0.1089774              -2.9654
        82                         -0.1073141              -2.9202
       ...                                ...                  ...
       144                          0.6968117              18.9612
      -------------------------------------------------------------
                  HL-Gap            0.0018151 Eh            0.0494 eV

Wiberg/Mayer (AO) data.
largest (>0.10) Wiberg bond orders for each atom

     #   Z sym  total        # sym  WBO       # sym  WBO       # sym  WBO
 ---------------------------------------------------------------------------
     1   6 C    3.898 --    29 H    0.987    28 H    0.980    27 H    0.980
                             2 O    0.927
     2   8 O    2.110 --     3 C    1.022     1 C    0.927
     3   6 C    3.722 --     4 O    1.476     5 C    1.156     2 O    1.022
     4   8 O    1.783 --     3 C    1.476
     5   6 C    3.839 --    25 C    1.305     3 C    1.156     6 N    1.151
     6   7 N    2.999 --     7 C    1.584     5 C    1.151
     7   6 C    3.913 --     6 N    1.584    21 N    1.155     8 C    0.975
     8   6 C    3.960 --    10 C    0.987     9 C    0.983     7 C    0.975
                            11 N    0.960
     9   6 C    3.993 --    30 H    0.986    32 H    0.984     8 C    0.983
                            31 H    0.981
    10   6 C    3.993 --    34 H    0.987     8 C    0.987    35 H    0.985
                            33 H    0.982
    11   7 N    3.097 --    12 C    0.998     8 C    0.960    36 H    0.926
    12   6 C    3.816 --    13 O    1.389    14 C    1.316    11 N    0.998
    13   8 O    1.638 --    12 C    1.389
    14   6 C    3.568 --    12 C    1.316    15 N    1.190    20 O    0.877
    15   7 N    2.686 --    14 C    1.190    16 N    1.171    18 C    0.206
    16   7 N    3.639 --    18 C    1.398    15 N    1.171    17 C    0.941
    17   6 C    3.938 --    37 H    0.983    38 H    0.981    39 H    0.977
                            16 N    0.941
    18   6 C    3.776 --    16 N    1.398    20 O    1.065    19 C    1.029
                            15 N    0.206
    19   6 C    3.987 --    18 C    1.029    40 H    0.980    42 H    0.970
                            41 H    0.963
    20   8 O    2.111 --    18 C    1.065    14 C    0.877
    21   7 N    3.382 --     7 C    1.155    23 C    1.037    22 C    0.948
                            24 O    0.104
    22   6 C    3.945 --    45 H    0.979    44 H    0.978    43 H    0.977
                            21 N    0.948
    23   6 C    3.840 --    24 O    1.473    25 C    1.203    21 N    1.037
    24   8 O    1.753 --    23 C    1.473    21 N    0.104
    25   6 C    3.744 --     5 C    1.305    23 C    1.203    26 O    1.047
    26   8 O    1.980 --    25 C    1.047    46 H    0.796
    27   1 H    1.013 --     1 C    0.980
    28   1 H    1.013 --     1 C    0.980
    29   1 H    1.016 --     1 C    0.987
    30   1 H    1.007 --     9 C    0.986
    31   1 H    1.007 --     9 C    0.981
    32   1 H    1.002 --     9 C    0.984
    33   1 H    1.020 --    10 C    0.982
    34   1 H    1.005 --    10 C    0.987
    35   1 H    1.020 --    10 C    0.985
    36   1 H    0.965 --    11 N    0.926
    37   1 H    1.007 --    17 C    0.983
    38   1 H    0.999 --    17 C    0.981
    39   1 H    0.999 --    17 C    0.977
    40   1 H    0.997 --    19 C    0.980
    41   1 H    0.995 --    19 C    0.963
    42   1 H    0.996 --    19 C    0.970
    43   1 H    1.012 --    22 C    0.977
    44   1 H    1.018 --    22 C    0.978
    45   1 H    1.025 --    22 C    0.979
    46   1 H    0.881 --    26 O    0.796
 ---------------------------------------------------------------------------

           -------------------------------------------------
          | TOTAL ENERGY              -87.013486860879 Eh   |
          | GRADIENT NORM               0.000381804810 Eh/α |
          | HOMO-LUMO GAP               0.049391153833 eV   |
           -------------------------------------------------

 * finished run on 2023/06/20 at 15:29:56.242
