   * xtb version 6.5.1 (579679a) compiled by 'ehlert@majestix' on 2022-07-11
          program call               : /lustre/hpc/kemi/ree/PhD/git/ReactivityQM/dep/xtb-6.5.1/bin/xtb --gfn 1 /lustre/hpc/kemi/ree/PhD/git/ReactivityQM/calculations/R01/reac01prodN07/conf11/R01_reac01prodN07_conf11_gfn1.xyz --opt --vfukui --chrg 1 --uhf 0 --alpb DMSO

   ID    Z sym.   atoms
    1    6 C      1, 3, 5, 8-10
    2    8 O      2, 4, 11
    3    7 N      6, 7
    4    1 H      12-20

      * Solvation model:               ALPB
        Solvent                        DMSO
        Solvent mass                       7.8130E+01 g/mol
          :  Hamiltonian                  GFN1-xTB          :
 * total energy  :   -37.5578933 Eh     change       -0.3581135E-11 Eh
 * total energy  :   -37.5689126 Eh     change       -0.1101924E-01 Eh
 * total energy  :   -37.5734984 Eh     change       -0.4585875E-02 Eh
 * total energy  :   -37.5742822 Eh     change       -0.7837406E-03 Eh
 * total energy  :   -37.5748179 Eh     change       -0.5356848E-03 Eh
 * total energy  :   -37.5749484 Eh     change       -0.1305093E-03 Eh
 * total energy  :   -37.5750670 Eh     change       -0.1186346E-03 Eh
 * total energy  :   -37.5751452 Eh     change       -0.7819901E-04 Eh
 * total energy  :   -37.5751850 Eh     change       -0.3981332E-04 Eh
 * total energy  :   -37.5752065 Eh     change       -0.2149213E-04 Eh
 * total energy  :   -37.5752133 Eh     change       -0.6776510E-05 Eh
 * total energy  :   -37.5752169 Eh     change       -0.3631042E-05 Eh
   *** GEOMETRY OPTIMIZATION CONVERGED AFTER 12 ITERATIONS ***

 final structure:
================
20
 xtb: 6.5.1 (579679a)
C           -3.82208711300243        0.60178525744885       -0.37318255504004
O           -2.39335329753065        0.41468304766588       -0.30287963165404
C           -1.94865941656220       -0.61919842408636        0.34644445467948
O           -2.56862406262736       -1.46825845571054        0.91420796012980
C           -0.41433054352352       -0.65049668027812        0.31192873261577
N            0.34542457298700       -1.63922992287898        0.89157636032433
N            1.55361427959359       -1.35707491213334        0.67358385446189
C            1.65609384296333       -0.15409813237669       -0.06758989612387
C            2.31279054938548       -0.39975618484258       -1.43556030659820
C            2.39056257487988        0.92778233851426        0.74103976511035
O            0.29729294096292        0.22755381337548       -0.25208203018863
H           -3.97800118353774        1.45791653446455       -1.02444288583956
H           -4.20754873557028        0.79598603666538        0.62851083151456
H           -4.28575133813221       -0.29666647602155       -0.78280190890877
H            3.33069068952889       -0.74608280320540       -1.27399306138371
H            1.74098349790434       -1.15191893550532       -1.97490667335054
H            2.31650432705923        0.53482343077710       -1.99133442922134
H            1.87173292288756        1.07998066351520        1.68504173084305
H            3.40892550832538        0.59280747813251        0.92231617278674
H            2.39374098400854        1.84946232647958        0.16417251584288

          :  Hamiltonian                  GFN1-xTB          :
         :: total energy             -37.575216928715 Eh    ::
         :: gradient norm              0.000553706486 Eh/a0 ::
         :: HOMO-LUMO gap              1.780770833463 eV    ::
         :: SCC energy               -37.911092766484 Eh    ::
         :: -> Gsolv                  -0.082812443903 Eh    ::
         :: repulsion energy           0.344300881009 Eh    ::

    * Orbital Energies and Occupations

         #    Occupation            Energy/Eh            Energy/eV
      -------------------------------------------------------------
         1        2.0000           -0.9573442             -26.0507
       ...           ...                  ...                  ...
        18        2.0000           -0.6147839             -16.7291
        19        2.0000           -0.6117460             -16.6465
        20        2.0000           -0.6108534             -16.6222
        21        2.0000           -0.5875005             -15.9867
        22        2.0000           -0.5857123             -15.9380
        23        2.0000           -0.5790305             -15.7562
        24        2.0000           -0.5749038             -15.6439
        25        2.0000           -0.5686310             -15.4732
        26        2.0000           -0.5558207             -15.1247
        27        2.0000           -0.5517677             -15.0144
        28        2.0000           -0.5425617             -14.7639
        29        2.0000           -0.5355547             -14.5732
        30        2.0000           -0.5252749             -14.2935 (HOMO)
        31                         -0.4598327             -12.5127 (LUMO)
        32                         -0.3770194             -10.2592
        33                         -0.2803231              -7.6280
        34                         -0.1701984              -4.6313
        35                         -0.1644039              -4.4737
        36                         -0.1599024              -4.3512
        37                         -0.1203557              -3.2750
        38                         -0.1124405              -3.0597
        39                         -0.0978497              -2.6626
        40                         -0.0950878              -2.5875
        41                         -0.0923012              -2.5116
       ...                                ...                  ...
        62                          0.7360148              20.0280
      -------------------------------------------------------------
                  HL-Gap            0.0654421 Eh            1.7808 eV

Wiberg/Mayer (AO) data.
largest (>0.10) Wiberg bond orders for each atom

     #   Z sym  total        # sym  WBO       # sym  WBO       # sym  WBO
 ---------------------------------------------------------------------------
     1   6 C    3.819 --    12 H    0.982    14 H    0.973    13 H    0.971
                             2 O    0.853
     2   8 O    2.272 --     3 C    1.203     1 C    0.853     4 O    0.174
     3   6 C    3.882 --     4 O    1.710     2 O    1.203     5 C    0.898
     4   8 O    1.997 --     3 C    1.710     2 O    0.174
     5   6 C    3.790 --    11 O    1.391     6 N    1.202     3 C    0.898
     6   7 N    3.022 --     7 N    1.675     5 C    1.202
     7   7 N    2.995 --     6 N    1.675     8 C    1.075
     8   6 C    3.813 --     7 N    1.075     9 C    0.884    10 C    0.883
                            11 O    0.867
     9   6 C    3.941 --    16 H    0.978    15 H    0.975    17 H    0.974
                             8 C    0.884
    10   6 C    3.941 --    18 H    0.978    19 H    0.975    20 H    0.974
                             8 C    0.883
    11   8 O    2.439 --     5 C    1.391     8 C    0.867
    12   1 H    1.002 --     1 C    0.982
    13   1 H    0.996 --     1 C    0.971
    14   1 H    0.996 --     1 C    0.973
    15   1 H    0.989 --     9 C    0.975
    16   1 H    0.989 --     9 C    0.978
    17   1 H    0.989 --     9 C    0.974
    18   1 H    0.989 --    10 C    0.978
    19   1 H    0.989 --    10 C    0.975
    20   1 H    0.989 --    10 C    0.974
 ---------------------------------------------------------------------------

           -------------------------------------------------
          | TOTAL ENERGY              -37.575216928715 Eh   |
          | GRADIENT NORM               0.000553706486 Eh/α |
          | HOMO-LUMO GAP               1.780770833463 eV   |
           -------------------------------------------------

 * finished run on 2023/06/20 at 14:56:45.023
