   * xtb version 6.5.1 (579679a) compiled by 'ehlert@majestix' on 2022-07-11
          program call               : /lustre/hpc/kemi/ree/PhD/git/ReactivityQM/dep/xtb-6.5.1/bin/xtb --gfn 1 /lustre/hpc/kemi/ree/PhD/git/ReactivityQM/calculations/R02oxygendeprot/reac01prodN15/conf03/R02oxygendeprot_reac01prodN15_conf03_gfn1.xyz --opt --vfukui --chrg 0 --uhf 0 --alpb DMSO

   ID    Z sym.   atoms
    1    6 C      1, 3, 5, 7-10, 12, 14, 17, 18, 21, 23, 24
    2    8 O      2, 4, 13, 19, 22, 25
    3    7 N      6, 11, 15, 16, 20
    4    1 H      26-42

      * Solvation model:               ALPB
        Solvent                        DMSO
        Solvent mass                       7.8130E+01 g/mol
          :  Hamiltonian                  GFN1-xTB          :
 * total energy  :   -82.8961863 Eh     change       -0.2362981E-09 Eh
 * total energy  :   -82.9158231 Eh     change       -0.1963677E-01 Eh
 * total energy  :   -82.9343342 Eh     change       -0.1851113E-01 Eh
 * total energy  :   -82.9523410 Eh     change       -0.1800678E-01 Eh
 * total energy  :   -82.9755358 Eh     change       -0.2319481E-01 Eh
 * total energy  :   -82.8675637 Eh     change        0.1079721E+00 Eh
 * total energy  :   -82.9943549 Eh     change       -0.1267912E+00 Eh
 * total energy  :   -82.9985922 Eh     change       -0.4237293E-02 Eh
 * total energy  :   -83.0004991 Eh     change       -0.1906927E-02 Eh
 * total energy  :   -83.0015234 Eh     change       -0.1024262E-02 Eh
 * total energy  :   -83.0060217 Eh     change       -0.1449102E-04 Eh
 * total energy  :   -83.0060474 Eh     change       -0.2569402E-04 Eh
 * total energy  :   -83.0060731 Eh     change       -0.2569855E-04 Eh
 * total energy  :   -83.0060862 Eh     change       -0.1311283E-04 Eh
 * total energy  :   -83.0061033 Eh     change       -0.1713638E-04 Eh
 * total energy  :   -83.0061101 Eh     change       -0.6762172E-05 Eh
 * total energy  :   -83.0061163 Eh     change       -0.6219841E-05 Eh
 * total energy  :   -83.0061211 Eh     change       -0.4827235E-05 Eh
 * total energy  :   -83.0061244 Eh     change       -0.3268602E-05 Eh
   *** GEOMETRY OPTIMIZATION CONVERGED AFTER 43 ITERATIONS ***

 final structure:
================
42
 xtb: 6.5.1 (579679a)
C           -6.03426078318634        0.49230746035867        1.17730600965373
O           -4.90663808897708        0.54738152825623        0.29213174714562
C           -3.76350310912673        0.06643694870331        0.75042504831419
O           -3.60918263679390       -0.40067472644957        1.84996112619515
C           -2.62660290287020        0.17516649443520       -0.25597277782678
N           -1.60439936704207       -0.76820538076494       -0.00050302047865
C           -0.47360911892865       -0.63241368598905       -0.57028073562087
C            0.57105460742079       -1.72109003399130       -0.43936713776673
C            0.21802179855124       -2.66092828115539        0.71708557762247
C            0.62070228629241       -2.47318994294338       -1.77846443868962
N            1.86126450423870       -1.07362166374725       -0.17854095017355
C            3.01932495168118       -1.76422690450506       -0.07041269012300
O            3.15172698598262       -2.96027204708956       -0.26203787087689
C            4.16378423927137       -0.89411266295367        0.29849184432989
N            5.39472144421204       -1.24687221183053        0.50249200923773
N            6.08273307937612       -0.11314834561981        0.81446652143487
C            5.22974300499828        0.86300843960325        0.78180079452519
C            5.48204276309131        2.29807618013189        1.03466834949567
O            3.99613856153503        0.43634746840807        0.46381631408013
N           -0.12653849678983        0.46436519866367       -1.33369359792839
C           -0.86485863348610        1.62414225468371       -1.36672364636644
O           -0.37427175103685        2.68297000549555       -1.69302613322804
C           -2.29959042161803        1.46232916204664       -0.95754317186017
C           -3.06349275562996        2.74917297278169       -0.75898158941200
O           -2.95833651022316        0.39437960585435       -1.59299753665853
H           -6.83228395676493        1.05176465362258        0.69499303383284
H           -6.33382007003865       -0.54640074768126        1.32944386420956
H           -5.77570236637988        0.94299281158805        2.13731262860973
H           -0.77232588083141       -3.08221888009839        0.55291041332736
H            0.21639947686000       -2.10838732047308        1.65528738695115
H            0.94625871598342       -3.46751274980499        0.77542226348099
H           -0.37205521631568       -2.85318813953636       -2.01549708239622
H            1.31492542319898       -3.30851083495390       -1.71581263741621
H            0.94322376241444       -1.79975005317405       -2.57024804211075
H            1.85775485848535       -0.11528527816245        0.12759881974900
H            6.51674140879239        2.44148197187598        1.33597129931837
H            5.28372305000344        2.87285563109128        0.12985095601763
H            4.81597336241407        2.66155688284283        1.81619949014604
H            0.83243920130849        0.55681804259095       -1.63307742493754
H           -2.84574844475680        3.42212693509982       -1.58854081047670
H           -2.74933722508855        3.22801787963763        0.16707370616845
H           -4.13213975022469        2.55631036315417       -0.72567790949546

          :  Hamiltonian                  GFN1-xTB          :
         :: total energy             -83.006124392500 Eh    ::
         :: gradient norm              0.000815121173 Eh/a0 ::
         :: HOMO-LUMO gap              3.663254825321 eV    ::
         :: SCC energy               -83.778339719023 Eh    ::
         :: -> Gsolv                  -0.055047645691 Eh    ::
         :: repulsion energy           0.797689028317 Eh    ::

    * Orbital Energies and Occupations

         #    Occupation            Energy/Eh            Energy/eV
      -------------------------------------------------------------
         1        2.0000           -0.8661608             -23.5694
       ...           ...                  ...                  ...
        55        2.0000           -0.5059042             -13.7664
        56        2.0000           -0.5051345             -13.7454
        57        2.0000           -0.5042352             -13.7209
        58        2.0000           -0.5012382             -13.6394
        59        2.0000           -0.4813028             -13.0969
        60        2.0000           -0.4776154             -12.9966
        61        2.0000           -0.4689094             -12.7597
        62        2.0000           -0.4659977             -12.6804
        63        2.0000           -0.4633360             -12.6080
        64        2.0000           -0.4621290             -12.5752
        65        2.0000           -0.4530284             -12.3275
        66        2.0000           -0.4519738             -12.2988
        67        2.0000           -0.4471000             -12.1662 (HOMO)
        68                         -0.3124779              -8.5030 (LUMO)
        69                         -0.3027137              -8.2373
        70                         -0.2884917              -7.8503
        71                         -0.2590290              -7.0485
        72                         -0.2571211              -6.9966
        73                         -0.2002812              -5.4499
        74                         -0.1425291              -3.8784
        75                         -0.1417502              -3.8572
        76                         -0.1319670              -3.5910
        77                         -0.1278148              -3.4780
        78                         -0.1251561              -3.4057
       ...                                ...                  ...
       134                          0.7290498              19.8385
      -------------------------------------------------------------
                  HL-Gap            0.1346221 Eh            3.6633 eV

Wiberg/Mayer (AO) data.
largest (>0.10) Wiberg bond orders for each atom

     #   Z sym  total        # sym  WBO       # sym  WBO       # sym  WBO
 ---------------------------------------------------------------------------
     1   6 C    3.859 --    26 H    0.985    28 H    0.980    27 H    0.979
                             2 O    0.883
     2   8 O    2.226 --     3 C    1.142     1 C    0.883     4 O    0.142
     3   6 C    3.851 --     4 O    1.689     2 O    1.142     5 C    0.936
     4   8 O    1.941 --     3 C    1.689     2 O    0.142
     5   6 C    3.869 --     6 N    1.026     3 C    0.936    25 O    0.907
                            23 C    0.835
     6   7 N    3.025 --     7 C    1.711     5 C    1.026
     7   6 C    3.929 --     6 N    1.711    20 N    1.108     8 C    0.979
     8   6 C    3.934 --     9 C    0.991     7 C    0.979    10 C    0.975
                            11 N    0.923
     9   6 C    3.988 --     8 C    0.991    30 H    0.985    29 H    0.983
                            31 H    0.982
    10   6 C    3.988 --    32 H    0.985    34 H    0.985    33 H    0.977
                             8 C    0.975
    11   7 N    3.335 --    12 C    1.244     8 C    0.923    35 H    0.893
                            13 O    0.173
    12   6 C    3.915 --    13 O    1.594    11 N    1.244    14 C    0.993
    13   8 O    1.909 --    12 C    1.594    11 N    0.173
    14   6 C    3.872 --    15 N    1.622    19 O    1.046    12 C    0.993
    15   7 N    3.000 --    14 C    1.622    16 N    1.199
    16   7 N    2.982 --    17 C    1.610    15 N    1.199
    17   6 C    3.868 --    16 N    1.610    19 O    1.072    18 C    1.032
    18   6 C    3.986 --    17 C    1.032    36 H    0.982    38 H    0.964
                            37 H    0.961
    19   8 O    2.316 --    17 C    1.072    14 C    1.046
    20   7 N    3.416 --    21 C    1.141     7 C    1.108    39 H    0.884
                            22 O    0.126
    21   6 C    3.893 --    22 O    1.659    20 N    1.141    23 C    0.978
    22   8 O    1.937 --    21 C    1.659    20 N    0.126
    23   6 C    3.861 --    24 C    1.002    21 C    0.978    25 O    0.894
                             5 C    0.835
    24   6 C    3.985 --    23 C    1.002    42 H    0.980    41 H    0.980
                            40 H    0.974
    25   8 O    1.967 --     5 C    0.907    23 C    0.894
    26   1 H    1.008 --     1 C    0.985
    27   1 H    1.004 --     1 C    0.979
    28   1 H    1.005 --     1 C    0.980
    29   1 H    1.009 --     9 C    0.983
    30   1 H    1.004 --     9 C    0.985
    31   1 H    1.007 --     9 C    0.982
    32   1 H    1.001 --    10 C    0.985
    33   1 H    1.009 --    10 C    0.977
    34   1 H    1.001 --    10 C    0.985
    35   1 H    0.937 --    11 N    0.893
    36   1 H    0.998 --    18 C    0.982
    37   1 H    0.996 --    18 C    0.961
    38   1 H    0.996 --    18 C    0.964
    39   1 H    0.929 --    20 N    0.884
    40   1 H    1.002 --    24 C    0.974
    41   1 H    0.999 --    24 C    0.980
    42   1 H    1.008 --    24 C    0.980
 ---------------------------------------------------------------------------

           -------------------------------------------------
          | TOTAL ENERGY              -83.006124392500 Eh   |
          | GRADIENT NORM               0.000815121173 Eh/α |
          | HOMO-LUMO GAP               3.663254825321 eV   |
           -------------------------------------------------

 * finished run on 2023/06/21 at 17:35:30.708
