   * xtb version 6.5.1 (579679a) compiled by 'ehlert@majestix' on 2022-07-11
          program call               : /lustre/hpc/kemi/ree/PhD/git/ReactivityQM/dep/xtb-6.5.1/bin/xtb --gfn 1 /lustre/hpc/kemi/ree/PhD/git/ReactivityQM/calculations/R01/reac02/conf04/R01_reac02_conf04_gfn1.xyz --opt --vfukui --chrg 0 --uhf 0 --alpb DMSO

   ID    Z sym.   atoms
    1    6 C      1, 3, 5, 7-10, 13, 15
    2    8 O      2, 4, 14, 16
    3    7 N      6, 11, 12
    4    1 H      17-29

      * Solvation model:               ALPB
        Solvent                        DMSO
        Solvent mass                       7.8130E+01 g/mol
          :  Hamiltonian                  GFN1-xTB          :
 * total energy  :   -54.5055735 Eh     change       -0.4483525E-11 Eh
 * total energy  :   -54.5127269 Eh     change       -0.7153321E-02 Eh
 * total energy  :   -54.5148467 Eh     change       -0.2119793E-02 Eh
 * total energy  :   -54.5151714 Eh     change       -0.3247249E-03 Eh
 * total energy  :   -54.5154385 Eh     change       -0.2671163E-03 Eh
 * total energy  :   -54.5155352 Eh     change       -0.9672414E-04 Eh
 * total energy  :   -54.5156081 Eh     change       -0.7285506E-04 Eh
 * total energy  :   -54.5156445 Eh     change       -0.3646212E-04 Eh
 * total energy  :   -54.5156699 Eh     change       -0.2532844E-04 Eh
 * total energy  :   -54.5156894 Eh     change       -0.1955240E-04 Eh
 * total energy  :   -54.5157024 Eh     change       -0.1302260E-04 Eh
 * total energy  :   -54.5157115 Eh     change       -0.9053113E-05 Eh
 * total energy  :   -54.5157144 Eh     change       -0.2905323E-05 Eh
 * total energy  :   -54.5157196 Eh     change       -0.5172454E-05 Eh
 * total energy  :   -54.5157227 Eh     change       -0.3142360E-05 Eh
   *** GEOMETRY OPTIMIZATION CONVERGED AFTER 15 ITERATIONS ***

 final structure:
================
29
 xtb: 6.5.1 (579679a)
C            4.66221571532076        0.91726546246355        1.31339905374884
O            3.60036269985699        0.57777508270974        0.40933473767944
C            2.38254197406108        0.46622875982035        0.96022151173448
O            2.18421913755006        0.63832779575434        2.13959817974649
C            1.31314872880710        0.12030269073069       -0.01690260289863
N            0.07365779755819        0.03396330549249        0.57242140325719
C           -0.94947987396370       -0.26492314841740       -0.15414907205233
C           -2.33879169957335       -0.32732048787181        0.44304042802853
C           -2.27608020333664       -0.94112407686812        1.84755418798397
C           -2.88806689080215        1.10490622781232        0.50186355159514
N           -3.17883302687442       -1.11480032988719       -0.45441708289249
N           -0.84952811707387       -0.48137729024752       -1.49159231288283
C            0.32607664702520       -0.42997782522467       -2.20347307756576
O            0.35208663314728       -0.64261902454095       -3.40533108990045
C            1.48436194986231       -0.09953130484581       -1.36141886159662
O            2.64703950512128       -0.04973371540352       -2.02697925580451
H            5.56487634168974        1.01656167735646        0.71649675262169
H            4.43353678007687        1.85928794126919        1.81667792112711
H            4.78214684132923        0.12641687669207        2.05708783268163
H           -1.61759313062331       -0.34675152687066        2.48107426698654
H           -1.88964911506055       -1.95799862648048        1.79464810419203
H           -3.27205928712746       -0.96423390457946        2.28520189219233
H           -2.96098542575396        1.51670332018283       -0.50403389839363
H           -3.87802639106971        1.10204120632668        0.95490685814107
H           -2.22722420889232        1.73399292511188        1.09739617004485
H           -4.15184826548739       -0.92169700940871       -0.26698077006952
H           -3.02679320294661       -2.10040326766494       -0.28842135612412
H           -1.70433216794614       -0.72832666247720       -1.97942324296892
H            3.40302025512475        0.15704492907034       -1.45237422860981

          :  Hamiltonian                  GFN1-xTB          :
         :: total energy             -54.515722715508 Eh    ::
         :: gradient norm              0.000719074226 Eh/a0 ::
         :: HOMO-LUMO gap              2.638762227551 eV    ::
         :: SCC energy               -55.042391817704 Eh    ::
         :: -> Gsolv                  -0.043719579083 Eh    ::
         :: repulsion energy           0.542642588648 Eh    ::

    * Orbital Energies and Occupations

         #    Occupation            Energy/Eh            Energy/eV
      -------------------------------------------------------------
         1        2.0000           -0.8436731             -22.9575
       ...           ...                  ...                  ...
        32        2.0000           -0.5164985             -14.0546
        33        2.0000           -0.5156589             -14.0318
        34        2.0000           -0.5120137             -13.9326
        35        2.0000           -0.5038837             -13.7114
        36        2.0000           -0.4993786             -13.5888
        37        2.0000           -0.4955875             -13.4856
        38        2.0000           -0.4874569             -13.2644
        39        2.0000           -0.4839505             -13.1690
        40        2.0000           -0.4815156             -13.1027
        41        2.0000           -0.4546254             -12.3710
        42        2.0000           -0.4459085             -12.1338
        43        2.0000           -0.4257271             -11.5846
        44        2.0000           -0.4180856             -11.3767 (HOMO)
        45                         -0.3211129              -8.7379 (LUMO)
        46                         -0.2761471              -7.5143
        47                         -0.2382686              -6.4836
        48                         -0.1556635              -4.2358
        49                         -0.1374493              -3.7402
        50                         -0.1251980              -3.4068
        51                         -0.1209838              -3.2921
        52                         -0.1025270              -2.7899
        53                         -0.0959106              -2.6099
        54                         -0.0905475              -2.4639
        55                         -0.0735407              -2.0011
       ...                                ...                  ...
        90                          0.7310879              19.8939
      -------------------------------------------------------------
                  HL-Gap            0.0969727 Eh            2.6388 eV

Wiberg/Mayer (AO) data.
largest (>0.10) Wiberg bond orders for each atom

     #   Z sym  total        # sym  WBO       # sym  WBO       # sym  WBO
 ---------------------------------------------------------------------------
     1   6 C    3.862 --    17 H    0.986    18 H    0.980    19 H    0.980
                             2 O    0.886
     2   8 O    2.201 --     3 C    1.087     1 C    0.886     4 O    0.129
     3   6 C    3.845 --     4 O    1.669     2 O    1.087     5 C    1.008
     4   8 O    1.930 --     3 C    1.669     2 O    0.129
     5   6 C    3.965 --    15 C    1.501     6 N    1.178     3 C    1.008
     6   7 N    3.019 --     7 C    1.577     5 C    1.178
     7   6 C    3.923 --     6 N    1.577    12 N    1.181     8 C    0.979
     8   6 C    3.966 --    11 N    0.987     9 C    0.986     7 C    0.979
                            10 C    0.979
     9   6 C    3.994 --     8 C    0.986    22 H    0.986    21 H    0.985
                            20 H    0.983
    10   6 C    3.993 --    23 H    0.986    25 H    0.986    24 H    0.983
                             8 C    0.979
    11   7 N    2.981 --     8 C    0.987    27 H    0.940    26 H    0.937
    12   7 N    3.473 --     7 C    1.181    13 C    1.134    28 H    0.869
                            14 O    0.135
    13   6 C    3.912 --    14 O    1.587    12 N    1.134    15 C    1.058
    14   8 O    1.883 --    13 C    1.587    12 N    0.135
    15   6 C    3.918 --     5 C    1.501    16 O    1.101    13 C    1.058
    16   8 O    2.081 --    15 C    1.101    29 H    0.804
    17   1 H    1.009 --     1 C    0.986
    18   1 H    1.007 --     1 C    0.980
    19   1 H    1.006 --     1 C    0.980
    20   1 H    1.010 --     9 C    0.983
    21   1 H    1.004 --     9 C    0.985
    22   1 H    1.002 --     9 C    0.986
    23   1 H    1.003 --    10 C    0.986
    24   1 H    1.000 --    10 C    0.983
    25   1 H    1.004 --    10 C    0.986
    26   1 H    0.951 --    11 N    0.937
    27   1 H    0.954 --    11 N    0.940
    28   1 H    0.950 --    12 N    0.869
    29   1 H    0.855 --    16 O    0.804
 ---------------------------------------------------------------------------

           -------------------------------------------------
          | TOTAL ENERGY              -54.515722715508 Eh   |
          | GRADIENT NORM               0.000719074226 Eh/α |
          | HOMO-LUMO GAP               2.638762227551 eV   |
           -------------------------------------------------

 * finished run on 2023/06/20 at 14:51:59.323
