   * xtb version 6.5.1 (579679a) compiled by 'ehlert@majestix' on 2022-07-11
          program call               : /lustre/hpc/kemi/ree/PhD/git/ReactivityQM/dep/xtb-6.5.1/bin/xtb --gfn 1 /lustre/hpc/kemi/ree/PhD/git/ReactivityQM/calculations/R01/reac02prodN09/conf13/R01_reac02prodN09_conf13_gfn1.xyz --opt --vfukui --chrg 1 --uhf 0 --alpb DMSO

   ID    Z sym.   atoms
    1    6 C      1, 3, 5, 7-10, 13, 15, 16
    2    8 O      2, 4, 14, 17
    3    7 N      6, 11, 12
    4    1 H      18-33

      * Solvation model:               ALPB
        Solvent                        DMSO
        Solvent mass                       7.8130E+01 g/mol
          :  Hamiltonian                  GFN1-xTB          :
 * total energy  :   -57.7891211 Eh     change       -0.2788880E-10 Eh
 * total energy  :   -57.8009919 Eh     change       -0.1187081E-01 Eh
 * total energy  :   -57.8064896 Eh     change       -0.5497708E-02 Eh
 * total energy  :   -57.8079113 Eh     change       -0.1421688E-02 Eh
 * total energy  :   -57.8089112 Eh     change       -0.9999345E-03 Eh
 * total energy  :   -57.8095873 Eh     change       -0.6761419E-03 Eh
 * total energy  :   -57.8102611 Eh     change       -0.6737852E-03 Eh
 * total energy  :   -57.8108867 Eh     change       -0.6255827E-03 Eh
 * total energy  :   -57.8113487 Eh     change       -0.4620418E-03 Eh
 * total energy  :   -57.8116989 Eh     change       -0.3501840E-03 Eh
 * total energy  :   -57.8184456 Eh     change       -0.1646029E-04 Eh
 * total energy  :   -57.8184245 Eh     change        0.2115611E-04 Eh
 * total energy  :   -57.8184678 Eh     change       -0.4333878E-04 Eh
 * total energy  :   -57.8184747 Eh     change       -0.6863715E-05 Eh
 * total energy  :   -57.8184874 Eh     change       -0.1276510E-04 Eh
 * total energy  :   -57.8184918 Eh     change       -0.4357707E-05 Eh
 * total energy  :   -57.8184957 Eh     change       -0.3935945E-05 Eh
 * total energy  :   -57.8184983 Eh     change       -0.2542918E-05 Eh
 * total energy  :   -57.8185006 Eh     change       -0.2302933E-05 Eh
   *** GEOMETRY OPTIMIZATION CONVERGED AFTER 64 ITERATIONS ***

 final structure:
================
33
 xtb: 6.5.1 (579679a)
C            3.91203224068807       -2.09687808227843       -0.69624571441896
O            2.66287947967263       -1.38122792340925       -0.73356705931815
C            2.56771256083430       -0.28666882582978       -0.02005970813878
O            3.41931741954247        0.18808018831233        0.68127214892317
C            1.18396525155012        0.33987115298273       -0.14330427555192
N            0.15965200910322       -0.42304011661752        0.04602891030769
C           -1.09007890391126        0.09673388276633       -0.06234423040456
C           -2.26467491592296       -0.79235643902889        0.15552381916419
C           -2.28322072005962       -1.80775832550576       -1.00323872624778
C           -2.10297992976714       -1.52749334509586        1.49991793007605
N           -3.45887130577508        0.02670648067591        0.11245883966061
N           -1.30139477430340        1.34381018736234       -0.42778416613957
C           -0.28216496400063        2.25994967356244       -0.78460266063806
O           -0.53516479574173        3.28734527411522       -1.33398196208848
C            1.08738529323062        1.82361449355206       -0.29803852635668
C            1.19303785965020        2.39294804905740        1.15640914820137
O            2.11114256230809        2.30328819773992       -1.10004031340141
H            4.64643206959342       -1.57514759769917       -1.31253478175479
H            4.26979436217572       -2.16273568280070        0.33260966822874
H            3.70701397687789       -3.08558207654373       -1.10064882583279
H           -2.43630640676310       -1.28866884343679       -1.94756543132887
H           -3.10105741412516       -2.50662543247523       -0.83966790057746
H           -1.34252006213583       -2.35492445334003       -1.03724618940650
H           -2.09006469083509       -0.80956359025758        2.31725806567200
H           -2.94425745807169       -2.20422597353387        1.63115725792142
H           -1.17382531168346       -2.09515809595650        1.50405225021664
H           -4.26420607844047       -0.53474311389724       -0.12572099832400
H           -3.62649433949155        0.45022551811277        1.01408879966320
H           -2.27687921447859        1.59844707678605       -0.59879890621016
H            1.06545699710994        3.47200445609754        1.10381958881797
H            0.42857290876352        1.95955375622470        1.79501095485731
H            2.18348265491226        2.15574415946080        1.54000596861239
H            1.97628163950634        3.23447537089739       -1.32422197418243

          :  Hamiltonian                  GFN1-xTB          :
         :: total energy             -57.818500586436 Eh    ::
         :: gradient norm              0.000514013255 Eh/a0 ::
         :: HOMO-LUMO gap              0.784845953951 eV    ::
         :: SCC energy               -58.392305726976 Eh    ::
         :: -> Gsolv                  -0.099048498004 Eh    ::
         :: repulsion energy           0.592884309146 Eh    ::

    * Orbital Energies and Occupations

         #    Occupation            Energy/Eh            Energy/eV
      -------------------------------------------------------------
         1        2.0000           -0.8943405             -24.3362
       ...           ...                  ...                  ...
        35        2.0000           -0.5505623             -14.9816
        36        2.0000           -0.5471455             -14.8886
        37        2.0000           -0.5439598             -14.8019
        38        2.0000           -0.5405252             -14.7084
        39        2.0000           -0.5390339             -14.6679
        40        2.0000           -0.5346857             -14.5495
        41        2.0000           -0.5326107             -14.4931
        42        2.0000           -0.5265235             -14.3274
        43        2.0000           -0.5237781             -14.2527
        44        2.0000           -0.5190896             -14.1251
        45        2.0000           -0.5014607             -13.6454
        46        2.0000           -0.4933123             -13.4237
        47        2.0000           -0.4510081             -12.2726 (HOMO)
        48        0.0000           -0.4221655             -11.4877 (LUMO)
        49                         -0.3477496              -9.4627
        50                         -0.3038395              -8.2679
        51                         -0.2794640              -7.6046
        52                         -0.1545852              -4.2065
        53                         -0.1524455              -4.1483
        54                         -0.1483386              -4.0365
        55                         -0.1446333              -3.9357
        56                         -0.1348767              -3.6702
        57                         -0.1209350              -3.2908
        58                         -0.1177821              -3.2050
       ...                                ...                  ...
       100                          0.7100183              19.3206
      -------------------------------------------------------------
                  HL-Gap            0.0288426 Eh            0.7848 eV

Wiberg/Mayer (AO) data.
largest (>0.10) Wiberg bond orders for each atom

     #   Z sym  total        # sym  WBO       # sym  WBO       # sym  WBO
 ---------------------------------------------------------------------------
     1   6 C    3.841 --    20 H    0.983    19 H    0.979    18 H    0.976
                             2 O    0.867
     2   8 O    2.242 --     3 C    1.175     1 C    0.867     4 O    0.156
     3   6 C    3.863 --     4 O    1.693     2 O    1.175     5 C    0.927
     4   8 O    1.983 --     3 C    1.693     2 O    0.156
     5   6 C    3.904 --     6 N    1.645    15 C    1.004     3 C    0.927
     6   7 N    3.049 --     5 C    1.645     7 C    1.198
     7   6 C    3.867 --    12 N    1.416     6 N    1.198     8 C    1.022
     8   6 C    3.957 --     7 C    1.022    11 N    1.002    10 C    0.943
                             9 C    0.936
     9   6 C    3.977 --    21 H    0.984    23 H    0.984    22 H    0.975
                             8 C    0.936
    10   6 C    3.980 --    24 H    0.984    26 H    0.982    25 H    0.978
                             8 C    0.943
    11   7 N    2.994 --     8 C    1.002    28 H    0.927    27 H    0.923
    12   7 N    3.527 --     7 C    1.416    13 C    1.004    29 H    0.832
    13   6 C    3.858 --    14 O    1.785    12 N    1.004    15 C    0.942
    14   8 O    2.036 --    13 C    1.785
    15   6 C    3.939 --     5 C    1.004    17 O    0.999    13 C    0.942
                            16 C    0.863
    16   6 C    3.960 --    31 H    0.985    32 H    0.972    30 H    0.971
                            15 C    0.863
    17   8 O    1.918 --    15 C    0.999    33 H    0.820
    18   1 H    1.000 --     1 C    0.976
    19   1 H    1.002 --     1 C    0.979
    20   1 H    1.006 --     1 C    0.983
    21   1 H    0.997 --     9 C    0.984
    22   1 H    0.994 --     9 C    0.975
    23   1 H    1.000 --     9 C    0.984
    24   1 H    0.997 --    10 C    0.984
    25   1 H    0.996 --    10 C    0.978
    26   1 H    1.002 --    10 C    0.982
    27   1 H    0.937 --    11 N    0.923
    28   1 H    0.940 --    11 N    0.927
    29   1 H    0.920 --    12 N    0.832
    30   1 H    0.992 --    16 C    0.971
    31   1 H    0.994 --    16 C    0.985
    32   1 H    1.004 --    16 C    0.972
    33   1 H    0.837 --    17 O    0.820
 ---------------------------------------------------------------------------

           -------------------------------------------------
          | TOTAL ENERGY              -57.818500586436 Eh   |
          | GRADIENT NORM               0.000514013255 Eh/α |
          | HOMO-LUMO GAP               0.784845953951 eV   |
           -------------------------------------------------

 * finished run on 2023/06/20 at 15:09:49.875
