   * xtb version 6.5.1 (579679a) compiled by 'ehlert@majestix' on 2022-07-11
          program call               : /lustre/hpc/kemi/ree/PhD/git/ReactivityQM/dep/xtb-6.5.1/bin/xtb --gfn 1 /lustre/hpc/kemi/ree/PhD/git/ReactivityQM/calculations/R02methylcation/reac01prodN13/conf08/R02methylcation_reac01prodN13_conf08_gfn1.xyz --opt --vfukui --chrg 0 --uhf 0 --alpb DMSO

   ID    Z sym.   atoms
    1    6 C      1, 3, 5, 7-10, 12, 14, 17-19, 22, 24
    2    8 O      2, 4, 13, 20, 23, 25
    3    7 N      6, 11, 15, 16, 21
    4    1 H      26-42

      * Solvation model:               ALPB
        Solvent                        DMSO
        Solvent mass                       7.8130E+01 g/mol
          :  Hamiltonian                  GFN1-xTB          :
 * total energy  :   -82.9221390 Eh     change       -0.7332801E-10 Eh
 * total energy  :   -82.9323067 Eh     change       -0.1016766E-01 Eh
 * total energy  :   -82.9359596 Eh     change       -0.3652904E-02 Eh
 * total energy  :   -82.9366036 Eh     change       -0.6440594E-03 Eh
 * total energy  :   -82.9371228 Eh     change       -0.5192315E-03 Eh
 * total energy  :   -82.9373934 Eh     change       -0.2705271E-03 Eh
 * total energy  :   -82.9375484 Eh     change       -0.1550112E-03 Eh
 * total energy  :   -82.9376111 Eh     change       -0.6269696E-04 Eh
 * total energy  :   -82.9376385 Eh     change       -0.2738180E-04 Eh
 * total energy  :   -82.9376622 Eh     change       -0.2370548E-04 Eh
 * total energy  :   -82.9377497 Eh     change       -0.1033790E-04 Eh
 * total energy  :   -82.9377717 Eh     change       -0.2194862E-04 Eh
 * total energy  :   -82.9377973 Eh     change       -0.2556977E-04 Eh
 * total energy  :   -82.9378292 Eh     change       -0.3191792E-04 Eh
 * total energy  :   -82.9378418 Eh     change       -0.1261445E-04 Eh
 * total energy  :   -82.9378541 Eh     change       -0.1226256E-04 Eh
 * total energy  :   -82.9378607 Eh     change       -0.6594903E-05 Eh
 * total energy  :   -82.9378679 Eh     change       -0.7221791E-05 Eh
 * total energy  :   -82.9378706 Eh     change       -0.2743447E-05 Eh
   *** GEOMETRY OPTIMIZATION CONVERGED AFTER 26 ITERATIONS ***

 final structure:
================
42
 xtb: 6.5.1 (579679a)
C           -6.23633316352459       -1.97128926354356        0.70809196495383
O           -5.04952160352193       -1.21032784776003        0.47961896196966
C           -5.09046892575923       -0.34407707457521       -0.54567678781417
O           -6.07167121662349       -0.20764037957954       -1.24211367270837
C           -3.81260550998975        0.39345556279802       -0.69804398628892
N           -2.83392896858175        0.06028286584018        0.17136690628751
C           -1.67628622582862        0.65020572029453        0.12951667757262
C           -0.61398694671321        0.28631816844962        1.13842659924122
C           -0.57350694301044        1.39398401346015        2.20460829805096
C           -0.91975602670782       -1.07613560602542        1.76715240054594
N            0.67026777469603        0.22657316841211        0.42846819441279
C            1.84944151480757        0.00256219539888        1.05052977495318
O            2.02118892455805       -0.10969120295796        2.24862132147771
C            2.95792004591823       -0.08709595673301        0.06133151442915
N            2.79865137233987        0.01544668406144       -1.27046657229745
N            3.94479883101888       -0.11759208965321       -1.83030594479517
C            4.94339921894000       -0.32675088777984       -0.81363883977785
C            5.96678996253462        0.81218437862173       -0.82425020069992
C            5.59659463346625       -1.70121235411604       -0.98292027079753
O            4.20108246540573       -0.29313416887993        0.40633403616697
N           -1.40186453875330        1.64231400399567       -0.75951370708183
C           -2.29541612360646        2.09437708789218       -1.71842694310651
O           -1.97228143447784        2.98343080803786       -2.48050840344815
C           -3.64413893039407        1.40194003379067       -1.71293880410274
O           -4.49334256874293        1.73028125415264       -2.53724675411570
H           -7.07857186389987       -1.30587073268410        0.91634885491116
H           -6.03834084876486       -2.60769531516811        1.56830361116730
H           -6.46861481834047       -2.58255867588496       -0.16807519226181
H            0.13871886540517        1.13838006532049        2.98604060137752
H           -0.28171910650720        2.33781131373324        1.74834349899685
H           -1.56320144719712        1.50114459244524        2.64607778000110
H           -1.89800139551373       -1.03926621647810        2.24442689915707
H           -0.93050579347166       -1.84571727913748        0.99698451014863
H           -0.16478554542126       -1.31947810157833        2.51164419514143
H            0.66082728368393        0.20521739485104       -0.58001607729565
H            6.49597844247020        0.80751950125824       -1.77366386207957
H            5.45113722646762        1.76144099316374       -0.69603325991363
H            6.67099155556506        0.66678131581389       -0.00854463443664
H            6.30639225554710       -1.86202418334039       -0.17512271527129
H            4.82826182322542       -2.47074434459622       -0.95261518822980
H            6.11201244272566       -1.73524805648528       -1.93935885170548
H           -0.50560769342310        2.10189761516853       -0.73614993273076

          :  Hamiltonian                  GFN1-xTB          :
         :: total energy             -82.937870619910 Eh    ::
         :: gradient norm              0.000544757982 Eh/a0 ::
         :: HOMO-LUMO gap              0.045307450063 eV    ::
         :: SCC energy               -83.704748600701 Eh    ::
         :: -> Gsolv                  -0.071839260445 Eh    ::
         :: repulsion energy           0.792268626211 Eh    ::

    * Orbital Energies and Occupations

         #    Occupation            Energy/Eh            Energy/eV
      -------------------------------------------------------------
         1        2.0000           -0.8824655             -24.0131
       ...           ...                  ...                  ...
        55        2.0000           -0.5150489             -14.0152
        56        2.0000           -0.5105034             -13.8915
        57        2.0000           -0.5092977             -13.8587
        58        2.0000           -0.5047894             -13.7360
        59        2.0000           -0.4928006             -13.4098
        60        2.0000           -0.4870390             -13.2530
        61        2.0000           -0.4839518             -13.1690
        62        2.0000           -0.4758804             -12.9494
        63        2.0000           -0.4698657             -12.7857
        64        2.0000           -0.4696681             -12.7803
        65        2.0000           -0.4618893             -12.5686
        66        2.0000           -0.4234361             -11.5223
        67        1.4121           -0.4083000             -11.1104 (HOMO)
        68        0.5879           -0.4066350             -11.0651 (LUMO)
        69                         -0.3253290              -8.8527
        70                         -0.3111904              -8.4679
        71                         -0.2860139              -7.7828
        72                         -0.2357980              -6.4164
        73                         -0.2244290              -6.1070
        74                         -0.1575691              -4.2877
        75                         -0.1440244              -3.9191
        76                         -0.1384992              -3.7688
        77                         -0.1352761              -3.6810
        78                         -0.1351853              -3.6786
       ...                                ...                  ...
       134                          0.7521408              20.4668
      -------------------------------------------------------------
                  HL-Gap            0.0016650 Eh            0.0453 eV

Wiberg/Mayer (AO) data.
largest (>0.10) Wiberg bond orders for each atom

     #   Z sym  total        # sym  WBO       # sym  WBO       # sym  WBO
 ---------------------------------------------------------------------------
     1   6 C    3.876 --    27 H    0.986    28 H    0.979    26 H    0.979
                             2 O    0.904
     2   8 O    2.176 --     3 C    1.089     1 C    0.904     4 O    0.130
     3   6 C    3.841 --     4 O    1.647     2 O    1.089     5 C    1.027
     4   8 O    1.890 --     3 C    1.647     2 O    0.130
     5   6 C    3.712 --     6 N    1.291    24 C    1.163     3 C    1.027
     6   7 N    2.987 --     7 C    1.484     5 C    1.291
     7   6 C    3.792 --     6 N    1.484    21 N    1.184     8 C    0.987
     8   6 C    3.923 --     7 C    0.987    10 C    0.986     9 C    0.967
                            11 N    0.917
     9   6 C    3.973 --    30 H    0.984    31 H    0.984    29 H    0.976
                             8 C    0.967
    10   6 C    3.982 --     8 C    0.986    33 H    0.985    32 H    0.982
                            34 H    0.982
    11   7 N    3.321 --    12 C    1.242     8 C    0.917    35 H    0.890
                            13 O    0.188
    12   6 C    3.909 --    13 O    1.599    11 N    1.242    14 C    0.985
    13   8 O    1.909 --    12 C    1.599    11 N    0.188
    14   6 C    3.636 --    15 N    1.306    20 O    1.199    12 C    0.985
    15   7 N    3.013 --    16 N    1.541    14 C    1.306
    16   7 N    2.688 --    15 N    1.541    17 C    1.023
    17   6 C    3.835 --    16 N    1.023    19 C    0.937    18 C    0.937
                            20 O    0.877
    18   6 C    3.936 --    37 H    0.982    36 H    0.982    38 H    0.980
                            17 C    0.937
    19   6 C    3.936 --    40 H    0.982    41 H    0.982    39 H    0.980
                            17 C    0.937
    20   8 O    2.217 --    14 C    1.199    17 C    0.877
    21   7 N    3.420 --     7 C    1.184    22 C    1.104    42 H    0.883
                            23 O    0.113
    22   6 C    3.838 --    23 O    1.655    21 N    1.104    24 C    0.948
    23   8 O    1.876 --    22 C    1.655    21 N    0.113
    24   6 C    3.868 --    25 O    1.617     5 C    1.163    22 C    0.948
    25   8 O    1.796 --    24 C    1.617
    26   1 H    1.007 --     1 C    0.979
    27   1 H    1.012 --     1 C    0.986
    28   1 H    1.007 --     1 C    0.979
    29   1 H    1.006 --     9 C    0.976
    30   1 H    1.000 --     9 C    0.984
    31   1 H    1.000 --     9 C    0.984
    32   1 H    1.009 --    10 C    0.982
    33   1 H    1.003 --    10 C    0.985
    34   1 H    1.005 --    10 C    0.982
    35   1 H    0.946 --    11 N    0.890
    36   1 H    0.997 --    18 C    0.982
    37   1 H    0.996 --    18 C    0.982
    38   1 H    0.996 --    18 C    0.980
    39   1 H    0.996 --    19 C    0.980
    40   1 H    0.996 --    19 C    0.982
    41   1 H    0.997 --    19 C    0.982
    42   1 H    0.928 --    21 N    0.883
 ---------------------------------------------------------------------------

           -------------------------------------------------
          | TOTAL ENERGY              -82.937870619910 Eh   |
          | GRADIENT NORM               0.000544757982 Eh/α |
          | HOMO-LUMO GAP               0.045307450063 eV   |
           -------------------------------------------------

 * finished run on 2023/06/21 at 17:46:52.549
