   * xtb version 6.5.1 (579679a) compiled by 'ehlert@majestix' on 2022-07-11
          program call               : /lustre/hpc/kemi/ree/PhD/git/ReactivityQM/dep/xtb-6.5.1/bin/xtb --gfn 1 /lustre/hpc/kemi/ree/PhD/git/ReactivityQM/calculations/RaltegravirCLI/reac01prodN06/conf08/RaltegravirCLI_reac01prodN06_conf08_gfn1.xyz --opt --vfukui --chrg 1 --uhf 0 --alpb DMSO

   ID    Z sym.   atoms
    1    6 C      1, 2, 5-7
    2    7 N      3, 4
    3    8 O      8, 10
    4   17 Cl     9
    5    1 H      11-16

      * Solvation model:               ALPB
        Solvent                        DMSO
        Solvent mass                       7.8130E+01 g/mol
          :  Hamiltonian                  GFN1-xTB          :
 * total energy  :   -33.2674233 Eh     change       -0.3773550E-09 Eh
 * total energy  :   -33.2758305 Eh     change       -0.8407159E-02 Eh
 * total energy  :   -33.2817731 Eh     change       -0.5942659E-02 Eh
 * total energy  :   -33.2833258 Eh     change       -0.1552650E-02 Eh
 * total energy  :   -33.2851849 Eh     change       -0.1859118E-02 Eh
 * total energy  :   -33.2860280 Eh     change       -0.8430633E-03 Eh
 * total energy  :   -33.2873916 Eh     change       -0.1363618E-02 Eh
 * total energy  :   -33.2912267 Eh     change       -0.3835153E-02 Eh
 * total energy  :   -33.2899489 Eh     change        0.1277883E-02 Eh
 * total energy  :   -33.2984791 Eh     change       -0.8530252E-02 Eh
 * total energy  :   -33.3941607 Eh     change       -0.7125106E-04 Eh
 * total energy  :   -33.3942240 Eh     change       -0.6323564E-04 Eh
 * total energy  :   -33.3942788 Eh     change       -0.5483810E-04 Eh
 * total energy  :   -33.3943014 Eh     change       -0.2261648E-04 Eh
 * total energy  :   -33.3943214 Eh     change       -0.1994934E-04 Eh
 * total energy  :   -33.3943307 Eh     change       -0.9338722E-05 Eh
 * total energy  :   -33.3943388 Eh     change       -0.8044573E-05 Eh
 * total energy  :   -33.3943458 Eh     change       -0.6996124E-05 Eh
 * total energy  :   -33.3943490 Eh     change       -0.3201895E-05 Eh
   *** GEOMETRY OPTIMIZATION CONVERGED AFTER 55 ITERATIONS ***

 final structure:
================
16
 xtb: 6.5.1 (579679a)
C            2.54653377791086       -0.01911150905809        0.62034802743384
C            1.52543785897694       -0.16693127657329       -0.42874162600530
N            1.71121590629575       -0.40348281390887       -1.70614565039865
N            0.51132331748229       -0.47055198467542       -2.27762349357927
C           -0.37664433834066       -0.27021602611759       -1.33095402486924
C           -1.79233433332779       -0.26596794598422       -1.52441009974245
C           -1.97542494143108        0.44615340868204        1.44972140138806
O           -2.41514057271464       -0.45163904815268       -2.50971204979757
Cl          -2.85862817756003        0.06326154851963       -0.05721978079730
O            0.22574181964737       -0.07251734239502       -0.13894243799665
H            2.38558463209483        0.91257201815760        1.16243546528167
H            3.54015807670423       -0.02977489099529        0.17768966101473
H            2.45423363723353       -0.83730536826918        1.33620483985387
H           -2.75130964519955        0.68322723497451        2.17381751484639
H           -1.32822414712349        1.30200052889964        1.28680128261089
H           -1.40252387064876       -0.41971653310336        1.76673197075658

          :  Hamiltonian                  GFN1-xTB          :
         :: total energy             -33.394348957812 Eh    ::
         :: gradient norm              0.000781588843 Eh/a0 ::
         :: HOMO-LUMO gap              2.775496583436 eV    ::
         :: SCC energy               -33.688245697983 Eh    ::
         :: -> Gsolv                  -0.093367139515 Eh    ::
         :: repulsion energy           0.301206457530 Eh    ::

    * Orbital Energies and Occupations

         #    Occupation            Energy/Eh            Energy/eV
      -------------------------------------------------------------
         1        2.0000           -1.0660848             -29.0096
       ...           ...                  ...                  ...
        15        2.0000           -0.6298180             -17.1382
        16        2.0000           -0.6110229             -16.6268
        17        2.0000           -0.6050385             -16.4639
        18        2.0000           -0.5927199             -16.1287
        19        2.0000           -0.5777553             -15.7215
        20        2.0000           -0.5724711             -15.5777
        21        2.0000           -0.5588943             -15.2083
        22        2.0000           -0.5567083             -15.1488
        23        2.0000           -0.5434378             -14.7877
        24        2.0000           -0.5419467             -14.7471
        25        2.0000           -0.5270871             -14.3428
        26        2.0000           -0.5015062             -13.6467
        27        2.0000           -0.4970456             -13.5253 (HOMO)
        28                         -0.3950479             -10.7498 (LUMO)
        29                         -0.3160796              -8.6010
        30                         -0.3043568              -8.2820
        31                         -0.3008813              -8.1874
        32                         -0.2725870              -7.4175
        33                         -0.1842770              -5.0144
        34                         -0.1835130              -4.9936
        35                         -0.1621158              -4.4114
        36                         -0.1620248              -4.4089
        37                         -0.1565774              -4.2607
        38                         -0.1117585              -3.0411
       ...                                ...                  ...
        57                          0.7525885              20.4790
      -------------------------------------------------------------
                  HL-Gap            0.1019976 Eh            2.7755 eV

Wiberg/Mayer (AO) data.
largest (>0.10) Wiberg bond orders for each atom

     #   Z sym  total        # sym  WBO       # sym  WBO       # sym  WBO
 ---------------------------------------------------------------------------
     1   6 C    3.974 --     2 C    1.046    12 H    0.978    11 H    0.953
                            13 H    0.945
     2   6 C    3.844 --     3 N    1.503    10 O    1.099     1 C    1.046
     3   7 N    3.001 --     2 C    1.503     4 N    1.303
     4   7 N    3.022 --     5 C    1.501     3 N    1.303
     5   6 C    3.884 --     4 N    1.501     6 C    1.113    10 O    1.038
     6   6 C    3.869 --     8 O    1.841     5 C    1.113     9 Cl   0.776
     7   6 C    3.864 --    16 H    0.980    15 H    0.979    14 H    0.969
                             9 Cl   0.898
     8   8 O    2.156 --     6 C    1.841     9 Cl   0.138
     9  17 Cl   1.893 --     7 C    0.898     6 C    0.776     8 O    0.138
    10   8 O    2.337 --     2 C    1.099     5 C    1.038
    11   1 H    0.989 --     1 C    0.953
    12   1 H    0.992 --     1 C    0.978
    13   1 H    0.988 --     1 C    0.945
    14   1 H    0.992 --     7 C    0.969
    15   1 H    1.000 --     7 C    0.979
    16   1 H    1.001 --     7 C    0.980
 ---------------------------------------------------------------------------

           -------------------------------------------------
          | TOTAL ENERGY              -33.394348957812 Eh   |
          | GRADIENT NORM               0.000781588843 Eh/α |
          | HOMO-LUMO GAP               2.775496583436 eV   |
           -------------------------------------------------

 * finished run on 2023/06/20 at 14:55:31.345
