                         Program Version 5.0.1 -  RELEASE  -
|  1> # ORCA input file
|  2> ! SP r2SCAN-3c CPCM
|  3>
|  4> %maxcore 1875.0
|  5> %pal nprocs 4 end
|  6> %cpcm smd true SMDsolvent "DMSO" end
|  7>
|  8> *xyz 0 1
|  9> C      -5.406083   -2.107188    0.822389
| 10> O      -4.078605   -1.619792    0.580677
| 11> C      -3.913257   -0.428037    0.108079
| 12> O      -4.984517    0.268117   -0.130846
| 13> C      -2.578685    0.039297   -0.110596
| 14> N      -1.594115   -0.855191    0.199493
| 15> C      -0.354473   -0.449004    0.021963
| 16> C       0.720805   -1.467323    0.369905
| 17> C       0.588087   -2.667650   -0.578880
| 18> C       0.545558   -1.904686    1.830744
| 19> N       2.016424   -0.820359    0.190505
| 20> C       3.194868   -1.418691    0.402153
| 21> O       3.354099   -2.578514    0.760497
| 22> C       4.353773   -0.515905    0.156070
| 23> N       5.614804   -0.813540    0.215449
| 24> N       6.303603    0.327270   -0.078975
| 25> C       5.419653    1.249716   -0.298062
| 26> C       5.654907    2.667982   -0.646919
| 27> O       4.167457    0.782245   -0.166892
| 28> N       0.036293    0.734141   -0.430292
| 29> C      -0.862699    1.691627   -0.771464
| 30> O      -0.517108    2.797787   -1.197223
| 31> C      -2.281782    1.312186   -0.595061
| 32> O      -3.311389    2.130117   -0.875326
| 33> C      -3.111957    3.464550   -1.370004
| 34> H      -5.904037   -1.469247    1.553631
| 35> H      -5.291087   -3.117653    1.207670
| 36> H      -5.972942   -2.110643   -0.109125
| 37> H       0.762439   -2.351628   -1.606525
| 38> H       1.305142   -3.443937   -0.316116
| 39> H      -0.420736   -3.069714   -0.499016
| 40> H      -0.466710   -2.282232    1.967189
| 41> H       0.697636   -1.054518    2.494513
| 42> H       1.258269   -2.688259    2.083165
| 43> H       1.979490    0.145583   -0.121215
| 44> H       5.238792    3.313994    0.125971
| 45> H       6.722676    2.851034   -0.737486
| 46> H       5.160634    2.907745   -1.587974
| 47> H      -4.793995    1.164744   -0.488324
| 48> H      -2.549797    4.061117   -0.649590
| 49> H      -4.110480    3.879771   -1.498193
| 50> H      -2.590953    3.444690   -2.328651
| 51> **                         ****END OF INPUT****

CARTESIAN COORDINATES (ANGSTROEM)
---------------------------------
  C     -5.406083   -2.107188    0.822389
  O     -4.078605   -1.619792    0.580677
  C     -3.913257   -0.428037    0.108079
  O     -4.984517    0.268117   -0.130846
  C     -2.578685    0.039297   -0.110596
  N     -1.594115   -0.855191    0.199493
  C     -0.354473   -0.449004    0.021963
  C      0.720805   -1.467323    0.369905
  C      0.588087   -2.667650   -0.578880
  C      0.545558   -1.904686    1.830744
  N      2.016424   -0.820359    0.190505
  C      3.194868   -1.418691    0.402153
  O      3.354099   -2.578514    0.760497
  C      4.353773   -0.515905    0.156070
  N      5.614804   -0.813540    0.215449
  N      6.303603    0.327270   -0.078975
  C      5.419653    1.249716   -0.298062
  C      5.654907    2.667982   -0.646919
  O      4.167457    0.782245   -0.166892
  N      0.036293    0.734141   -0.430292
  C     -0.862699    1.691627   -0.771464
  O     -0.517108    2.797787   -1.197223
  C     -2.281782    1.312186   -0.595061
  O     -3.311389    2.130117   -0.875326
  C     -3.111957    3.464550   -1.370004
  H     -5.904037   -1.469247    1.553631
  H     -5.291087   -3.117653    1.207670
  H     -5.972942   -2.110643   -0.109125
  H      0.762439   -2.351628   -1.606525
  H      1.305142   -3.443937   -0.316116
  H     -0.420736   -3.069714   -0.499016
  H     -0.466710   -2.282232    1.967189
  H      0.697636   -1.054518    2.494513
  H      1.258269   -2.688259    2.083165
  H      1.979490    0.145583   -0.121215
  H      5.238792    3.313994    0.125971
  H      6.722676    2.851034   -0.737486
  H      5.160634    2.907745   -1.587974
  H     -4.793995    1.164744   -0.488324
  H     -2.549797    4.061117   -0.649590
  H     -4.110480    3.879771   -1.498193
  H     -2.590953    3.444690   -2.328651

 Total Charge           Charge          ....    0
 Multiplicity           Mult            ....    1
 Number of Electrons    NEL             ....  184
 Basis Dimension        Dim             ....  615

ORBITAL ENERGIES
----------------

  NO   OCC          E(Eh)            E(eV)
   0   2.0000     -19.062726      -518.7232
   1   2.0000     -19.055989      -518.5398
   2   2.0000     -19.054647      -518.5033
   3   2.0000     -19.031495      -517.8733
   4   2.0000     -18.925305      -514.9837
   5   2.0000     -18.905838      -514.4540
   6   2.0000     -14.201483      -386.4420
   7   2.0000     -14.195012      -386.2659
   8   2.0000     -14.189914      -386.1272
   9   2.0000     -14.149857      -385.0372
  10   2.0000     -14.145795      -384.9267
  11   2.0000     -10.228019      -278.3185
  12   2.0000     -10.149562      -276.1836
  13   2.0000     -10.144707      -276.0515
  14   2.0000     -10.139484      -275.9094
  15   2.0000     -10.133943      -275.7586
  16   2.0000     -10.126130      -275.5460
  17   2.0000     -10.101668      -274.8804
  18   2.0000     -10.099929      -274.8330
  19   2.0000     -10.098929      -274.8058
  20   2.0000     -10.088873      -274.5322
  21   2.0000     -10.082875      -274.3690
  22   2.0000     -10.044234      -273.3175
  23   2.0000     -10.015498      -272.5356
  24   2.0000     -10.014699      -272.5138
  25   2.0000      -1.152289       -31.3554
  26   2.0000      -1.150708       -31.3124
  27   2.0000      -1.079324       -29.3699
  28   2.0000      -1.066394       -29.0180
  29   2.0000      -1.013860       -27.5885
  30   2.0000      -0.988839       -26.9077
  31   2.0000      -0.972132       -26.4531
  32   2.0000      -0.942255       -25.6401
  33   2.0000      -0.903643       -24.5894
  34   2.0000      -0.844854       -22.9896
  35   2.0000      -0.828025       -22.5317
  36   2.0000      -0.788979       -21.4692
  37   2.0000      -0.752772       -20.4840
  38   2.0000      -0.744287       -20.2531
  39   2.0000      -0.711351       -19.3568
  40   2.0000      -0.679684       -18.4951
  41   2.0000      -0.664742       -18.0885
  42   2.0000      -0.654473       -17.8091
  43   2.0000      -0.651908       -17.7393
  44   2.0000      -0.645586       -17.5673
  45   2.0000      -0.616341       -16.7715
  46   2.0000      -0.597151       -16.2493
  47   2.0000      -0.576638       -15.6911
  48   2.0000      -0.549666       -14.9572
  49   2.0000      -0.538832       -14.6624
  50   2.0000      -0.533109       -14.5066
  51   2.0000      -0.518593       -14.1116
  52   2.0000      -0.512471       -13.9451
  53   2.0000      -0.502120       -13.6634
  54   2.0000      -0.500506       -13.6195
  55   2.0000      -0.491841       -13.3837
  56   2.0000      -0.462523       -12.5859
  57   2.0000      -0.456455       -12.4208
  58   2.0000      -0.442055       -12.0289
  59   2.0000      -0.431631       -11.7453
  60   2.0000      -0.422826       -11.5057
  61   2.0000      -0.419865       -11.4251
  62   2.0000      -0.416850       -11.3431
  63   2.0000      -0.413788       -11.2597
  64   2.0000      -0.406313       -11.0563
  65   2.0000      -0.404488       -11.0067
  66   2.0000      -0.398305       -10.8384
  67   2.0000      -0.390043       -10.6136
  68   2.0000      -0.388491       -10.5714
  69   2.0000      -0.379925       -10.3383
  70   2.0000      -0.377305       -10.2670
  71   2.0000      -0.372893       -10.1469
  72   2.0000      -0.354117        -9.6360
  73   2.0000      -0.350083        -9.5262
  74   2.0000      -0.345876        -9.4118
  75   2.0000      -0.342912        -9.3311
  76   2.0000      -0.341865        -9.3026
  77   2.0000      -0.341388        -9.2896
  78   2.0000      -0.334348        -9.0981
  79   2.0000      -0.329692        -8.9714
  80   2.0000      -0.323465        -8.8019
  81   2.0000      -0.312951        -8.5158
  82   2.0000      -0.311202        -8.4682
  83   2.0000      -0.281829        -7.6690
  84   2.0000      -0.265305        -7.2193
  85   2.0000      -0.264397        -7.1946
  86   2.0000      -0.259312        -7.0562
  87   2.0000      -0.239362        -6.5134
  88   2.0000      -0.237662        -6.4671
  89   2.0000      -0.224677        -6.1138
  90   2.0000      -0.214587        -5.8392
  91   2.0000      -0.196916        -5.3584
  92   0.0000      -0.123976        -3.3735
  93   0.0000      -0.080531        -2.1913
  94   0.0000      -0.028682        -0.7805
  95   0.0000      -0.017654        -0.4804
  96   0.0000       0.002838         0.0772

MULLIKEN ATOMIC CHARGES
-----------------------
   0 C :   -0.294303
   1 O :   -0.159368
   2 C :    0.213789
   3 O :   -0.321147
   4 C :    0.086239
   5 N :   -0.274084
   6 C :    0.540740
   7 C :   -0.180041
   8 C :   -0.647351
   9 C :   -0.647858
  10 N :    0.033598
  11 C :   -0.127706
  12 O :   -0.445784
  13 C :    0.421634
  14 N :   -0.184664
  15 N :   -0.282015
  16 C :    0.396428
  17 C :   -0.636589
  18 O :   -0.056330
  19 N :   -0.239804
  20 C :    0.036504
  21 O :   -0.418634
  22 C :    0.143142
  23 O :   -0.204158
  24 C :   -0.305024
  25 H :    0.196999
  26 H :    0.197569
  27 H :    0.196658
  28 H :    0.182284
  29 H :    0.195367
  30 H :    0.187416
  31 H :    0.187194
  32 H :    0.181396
  33 H :    0.194999
  34 H :    0.303991
  35 H :    0.201076
  36 H :    0.204124
  37 H :    0.199740
  38 H :    0.380804
  39 H :    0.185219
  40 H :    0.172665
  41 H :    0.185283
Sum of atomic charges:    0.0000000

LOEWDIN ATOMIC CHARGES
----------------------
   0 C :   -0.003533
   1 O :   -0.494188
   2 C :    0.497423
   3 O :   -0.310776
   4 C :    0.185338
   5 N :   -0.605664
   6 C :    0.329040
   7 C :    0.106874
   8 C :   -0.347298
   9 C :   -0.347817
  10 N :   -0.582783
  11 C :    0.377465
  12 O :   -0.471245
  13 C :    0.416168
  14 N :   -0.340668
  15 N :   -0.364911
  16 C :    0.375692
  17 C :   -0.318325
  18 O :   -0.392251
  19 N :   -0.558228
  20 C :    0.324496
  21 O :   -0.513879
  22 C :    0.313414
  23 O :   -0.672886
  24 C :   -0.013035
  25 H :    0.195875
  26 H :    0.199160
  27 H :    0.195760
  28 H :    0.171213
  29 H :    0.176240
  30 H :    0.173416
  31 H :    0.174838
  32 H :    0.171180
  33 H :    0.175274
  34 H :    0.308120
  35 H :    0.191568
  36 H :    0.190468
  37 H :    0.190932
  38 H :    0.332857
  39 H :    0.190840
  40 H :    0.182916
  41 H :    0.190919

  Mayer bond orders larger than 0.100000
B(  0-C ,  1-O ) :   0.8018 B(  0-C , 25-H ) :   0.9434 B(  0-C , 26-H ) :   0.9528
B(  0-C , 27-H ) :   0.9435 B(  1-O ,  2-C ) :   1.3393 B(  2-C ,  3-O ) :   1.2588
B(  2-C ,  4-C ) :   1.0972 B(  2-C ,  5-N ) :   0.1337 B(  3-O , 38-H ) :   0.7658
B(  4-C ,  5-N ) :   0.9961 B(  4-C , 22-C ) :   1.4073 B(  5-N ,  6-C ) :   1.3483
B(  6-C ,  7-C ) :   0.7407 B(  6-C , 10-N ) :  -0.1336 B(  6-C , 19-N ) :   1.2751
B(  7-C ,  8-C ) :   0.9080 B(  7-C ,  9-C ) :   0.9133 B(  7-C , 10-N ) :   0.9448
B(  7-C , 19-N ) :   0.1361 B(  8-C , 28-H ) :   0.9691 B(  8-C , 29-H ) :   0.9631
B(  8-C , 30-H ) :   0.9651 B(  9-C , 31-H ) :   0.9629 B(  9-C , 32-H ) :   0.9698
B(  9-C , 33-H ) :   0.9657 B( 10-N , 11-C ) :   1.1908 B( 10-N , 34-H ) :   0.8335
B( 11-C , 12-O ) :   1.9120 B( 11-C , 13-C ) :   0.8311 B( 12-O , 13-C ) :  -0.1036
B( 13-C , 14-N ) :   1.7136 B( 13-C , 16-C ) :   0.1018 B( 13-C , 18-O ) :   1.0847
B( 14-N , 15-N ) :   1.2763 B( 15-N , 16-C ) :   1.6415 B( 16-C , 17-C ) :   0.8314
B( 16-C , 18-O ) :   1.0667 B( 17-C , 35-H ) :   0.9407 B( 17-C , 36-H ) :   0.9898
B( 17-C , 37-H ) :   0.9441 B( 19-N , 20-C ) :   1.2350 B( 20-C , 21-O ) :   1.9577
B( 20-C , 22-C ) :   0.9305 B( 21-O , 22-C ) :  -0.1039 B( 22-C , 23-O ) :   1.1097
B( 23-O , 24-C ) :   0.8446 B( 24-C , 39-H ) :   0.9450 B( 24-C , 40-H ) :   0.9556
B( 24-C , 41-H ) :   0.9450

Dispersion correction           -0.018190521
FINAL SINGLE POINT ENERGY     -1268.597645335776

DIPOLE MOMENT
-------------
                                X             Y             Z
Electronic contribution:      5.11999       1.87388      -0.89259
Nuclear contribution   :    -13.09851       0.08483       0.58391
                        -----------------------------------------
Total Dipole Moment    :     -7.97851       1.95871      -0.30868
                        -----------------------------------------
Magnitude (a.u.)       :      8.22122
Magnitude (Debye)      :     20.89669

Rotational constants in cm-1:     0.013478     0.003670     0.002948
Rotational constants in MHz :   404.045957   110.026169    88.384604

                             ****ORCA TERMINATED NORMALLY****
TOTAL RUN TIME: 0 days 0 hours 2 minutes 16 seconds 415 msec
