   * xtb version 6.5.1 (579679a) compiled by 'ehlert@majestix' on 2022-07-11
          program call               : /lustre/hpc/kemi/ree/PhD/git/ReactivityQM/dep/xtb-6.5.1/bin/xtb --gfn 1 /lustre/hpc/kemi/ree/PhD/git/ReactivityQM/calculations/R02deprot/reac01prodN05/conf03/R02deprot_reac01prodN05_conf03_gfn1.xyz --opt --vfukui --chrg 0 --uhf 0 --alpb DMSO

   ID    Z sym.   atoms
    1    6 C      1, 3, 5, 7-10, 12, 14, 17, 18, 21, 23, 25
    2    8 O      2, 4, 13, 19, 22, 24
    3    7 N      6, 11, 15, 16, 20
    4    1 H      26-42

      * Solvation model:               ALPB
        Solvent                        DMSO
        Solvent mass                       7.8130E+01 g/mol
          :  Hamiltonian                  GFN1-xTB          :
 * total energy  :   -82.9313170 Eh     change       -0.1524825E-10 Eh
 * total energy  :   -82.9460280 Eh     change       -0.1471099E-01 Eh
 * total energy  :   -82.9526874 Eh     change       -0.6659382E-02 Eh
 * total energy  :   -82.9548775 Eh     change       -0.2190094E-02 Eh
 * total energy  :   -82.9571913 Eh     change       -0.2313818E-02 Eh
 * total energy  :   -82.9587920 Eh     change       -0.1600730E-02 Eh
 * total energy  :   -82.9602422 Eh     change       -0.1450191E-02 Eh
 * total energy  :   -82.9625795 Eh     change       -0.2337294E-02 Eh
 * total energy  :   -82.9645854 Eh     change       -0.2005865E-02 Eh
 * total energy  :   -82.9660186 Eh     change       -0.1433186E-02 Eh
 * total energy  :   -82.9748019 Eh     change       -0.1682047E-04 Eh
 * total energy  :   -82.9747980 Eh     change        0.3914857E-05 Eh
 * total energy  :   -82.9748112 Eh     change       -0.1323145E-04 Eh
 * total energy  :   -82.9748200 Eh     change       -0.8830447E-05 Eh
 * total energy  :   -82.9748281 Eh     change       -0.8031886E-05 Eh
 * total energy  :   -82.9748419 Eh     change       -0.1385126E-04 Eh
 * total energy  :   -82.9748475 Eh     change       -0.5546902E-05 Eh
 * total energy  :   -82.9748477 Eh     change       -0.2287895E-06 Eh
 * total energy  :   -82.9748526 Eh     change       -0.4882845E-05 Eh
   *** GEOMETRY OPTIMIZATION CONVERGED AFTER 40 ITERATIONS ***

 final structure:
================
42
 xtb: 6.5.1 (579679a)
C           -5.40608342576389       -2.10718764970140        0.82238886429518
O           -4.07860469802544       -1.61979234808039        0.58067694646443
C           -3.91325681081437       -0.42803685363445        0.10807915834978
O           -4.98451738428206        0.26811686383869       -0.13084644204098
C           -2.57868546966799        0.03929663113875       -0.11059568755022
N           -1.59411530839305       -0.85519061783625        0.19949257693340
C           -0.35447288854196       -0.44900399877359        0.02196290518891
C            0.72080524238595       -1.46732268264749        0.36990513278078
C            0.58808746262913       -2.66765034945968       -0.57887961914365
C            0.54555820549592       -1.90468639061921        1.83074412796158
N            2.01642443788048       -0.82035932443814        0.19050468603479
C            3.19486831692703       -1.41869100698482        0.40215308931309
O            3.35409881910962       -2.57851439727483        0.76049742507565
C            4.35377284587953       -0.51590530565486        0.15607011374057
N            5.61480389154708       -0.81354015530039        0.21544911583722
N            6.30360280496825        0.32726961064300       -0.07897459906966
C            5.41965259991965        1.24971615529763       -0.29806163376930
C            5.65490712642585        2.66798162870481       -0.64691873658763
O            4.16745748023821        0.78224512314821       -0.16689188864546
N            0.03629341451568        0.73414130225305       -0.43029190938796
C           -0.86269860499314        1.69162686561646       -0.77146406552991
O           -0.51710788310260        2.79778699972883       -1.19722341284381
C           -2.28178234570344        1.31218628547176       -0.59506106007361
O           -3.31138916482573        2.13011654449741       -0.87532636033909
C           -3.11195707522945        3.46455026940118       -1.37000365299233
H           -5.90403656533431       -1.46924733406760        1.55363111187628
H           -5.29108745659916       -3.11765267578236        1.20766962198889
H           -5.97294226898435       -2.11064289574652       -0.10912494574064
H            0.76243891032188       -2.35162806435986       -1.60652498653896
H            1.30514182993247       -3.44393692259693       -0.31611592568191
H           -0.42073569727575       -3.06971382101904       -0.49901587364813
H           -0.46671030178919       -2.28223208872058        1.96718856641393
H            0.69763589913653       -1.05451786774581        2.49451322889064
H            1.25826942924589       -2.68825879009877        2.08316455260244
H            1.97949037853530        0.14558268385726       -0.12121518656551
H            5.23879233568047        3.31399407944551        0.12597134793502
H            6.72267642248615        2.85103410909889       -0.73748607064919
H            5.16063404374012        2.90774521040746       -1.58797380973642
H           -4.79399457945224        1.16474359594622       -0.48832352465504
H           -2.54979718258666        4.06111714700379       -0.64959013719348
H           -4.11048040570152        3.87977078353862       -1.49819329640775
H           -2.59095337993600        3.44468965150324       -2.32865074689126

          :  Hamiltonian                  GFN1-xTB          :
         :: total energy             -82.974852576092 Eh    ::
         :: gradient norm              0.000582634073 Eh/a0 ::
         :: HOMO-LUMO gap              1.513896916475 eV    ::
         :: SCC energy               -83.742807256930 Eh    ::
         :: -> Gsolv                  -0.062921921629 Eh    ::
         :: repulsion energy           0.792885427325 Eh    ::

    * Orbital Energies and Occupations

         #    Occupation            Energy/Eh            Energy/eV
      -------------------------------------------------------------
         1        2.0000           -0.8840390             -24.0559
       ...           ...                  ...                  ...
        55        2.0000           -0.4984357             -13.5631
        56        2.0000           -0.4900704             -13.3355
        57        2.0000           -0.4896983             -13.3254
        58        2.0000           -0.4744967             -12.9117
        59        2.0000           -0.4639194             -12.6239
        60        2.0000           -0.4583595             -12.4726
        61        2.0000           -0.4566838             -12.4270
        62        2.0000           -0.4525673             -12.3150
        63        2.0000           -0.4452668             -12.1163
        64        2.0000           -0.4358815             -11.8609
        65        2.0000           -0.4302772             -11.7084
        66        2.0000           -0.4038274             -10.9887
        67        2.0000           -0.4030005             -10.9662 (HOMO)
        68                         -0.3473658              -9.4523 (LUMO)
        69                         -0.3017660              -8.2115
        70                         -0.2593664              -7.0577
        71                         -0.2523836              -6.8677
        72                         -0.2370511              -6.4505
        73                         -0.1902253              -5.1763
        74                         -0.1545106              -4.2044
        75                         -0.1449648              -3.9447
        76                         -0.1403952              -3.8203
        77                         -0.1282814              -3.4907
        78                         -0.1152282              -3.1355
       ...                                ...                  ...
       134                          0.7287328              19.8298
      -------------------------------------------------------------
                  HL-Gap            0.0556347 Eh            1.5139 eV

Wiberg/Mayer (AO) data.
largest (>0.10) Wiberg bond orders for each atom

     #   Z sym  total        # sym  WBO       # sym  WBO       # sym  WBO
 ---------------------------------------------------------------------------
     1   6 C    3.841 --    27 H    0.984    28 H    0.975    26 H    0.975
                             2 O    0.870
     2   8 O    2.291 --     3 C    1.239     1 C    0.870
     3   6 C    3.806 --     2 O    1.239     4 O    1.219     5 C    1.169
     4   8 O    2.170 --     3 C    1.219    39 H    0.750
     5   6 C    3.957 --    23 C    1.361     6 N    1.193     3 C    1.169
     6   7 N    2.990 --     7 C    1.448     5 C    1.193
     7   6 C    3.951 --     6 N    1.448    20 N    1.374     8 C    0.976
     8   6 C    3.935 --    10 C    0.983     9 C    0.980     7 C    0.976
                            11 N    0.929
     9   6 C    3.991 --    29 H    0.986    31 H    0.985    30 H    0.982
                             8 C    0.980
    10   6 C    3.991 --    33 H    0.986    32 H    0.984     8 C    0.983
                            34 H    0.982
    11   7 N    3.380 --    12 C    1.295     8 C    0.929    35 H    0.873
                            13 O    0.184
    12   6 C    3.922 --    13 O    1.561    11 N    1.295    14 C    0.986
    13   8 O    1.881 --    12 C    1.561    11 N    0.184
    14   6 C    3.869 --    15 N    1.626    19 O    1.049    12 C    0.986
    15   7 N    2.996 --    14 C    1.626    16 N    1.193
    16   7 N    2.980 --    17 C    1.615    15 N    1.193
    17   6 C    3.871 --    16 N    1.615    19 O    1.073    18 C    1.031
    18   6 C    3.987 --    17 C    1.031    37 H    0.983    38 H    0.965
                            36 H    0.963
    19   8 O    2.317 --    17 C    1.073    14 C    1.049
    20   7 N    3.025 --     7 C    1.374    21 C    1.232    22 O    0.131
    21   6 C    3.930 --    22 O    1.519    20 N    1.232    23 C    1.048
    22   8 O    1.855 --    21 C    1.519    20 N    0.131
    23   6 C    3.883 --     5 C    1.361    24 O    1.089    21 C    1.048
    24   8 O    2.222 --    23 C    1.089    25 C    0.874
    25   6 C    3.852 --    41 H    0.985    40 H    0.977    42 H    0.977
                            24 O    0.874
    26   1 H    1.000 --     1 C    0.975
    27   1 H    1.005 --     1 C    0.984
    28   1 H    1.000 --     1 C    0.975
    29   1 H    1.004 --     9 C    0.986
    30   1 H    1.011 --     9 C    0.982
    31   1 H    1.011 --     9 C    0.985
    32   1 H    1.013 --    10 C    0.984
    33   1 H    1.004 --    10 C    0.986
    34   1 H    1.011 --    10 C    0.982
    35   1 H    0.964 --    11 N    0.873
    36   1 H    0.997 --    18 C    0.963
    37   1 H    0.999 --    18 C    0.983
    38   1 H    0.997 --    18 C    0.965
    39   1 H    0.821 --     4 O    0.750
    40   1 H    1.017 --    25 C    0.977
    41   1 H    1.010 --    25 C    0.985
    42   1 H    1.017 --    25 C    0.977
 ---------------------------------------------------------------------------

           -------------------------------------------------
          | TOTAL ENERGY              -82.974852576092 Eh   |
          | GRADIENT NORM               0.000582634073 Eh/α |
          | HOMO-LUMO GAP               1.513896916475 eV   |
           -------------------------------------------------

 * finished run on 2023/06/20 at 18:10:37.104
