                         Program Version 5.0.1 -  RELEASE  -
|  1> # ORCA input file
|  2> ! SP r2SCAN-3c CPCM
|  3>
|  4> %maxcore 1875.0
|  5> %pal nprocs 4 end
|  6> %cpcm smd true SMDsolvent "DMSO" end
|  7>
|  8> *xyz -1 1
|  9> C      -5.486889    2.539080   -1.253597
| 10> O      -4.195870    1.985196   -1.081607
| 11> C      -4.160772    0.785068   -0.374633
| 12> O      -5.243622    0.293889    0.043609
| 13> C      -2.899519    0.219240   -0.212333
| 14> C      -2.714434   -1.012037    0.545072
| 15> O      -3.805827   -1.572979    1.157909
| 16> C      -1.479248   -1.522664    0.694342
| 17> O      -1.134586   -2.637062    1.454936
| 18> C      -1.648705   -2.702773    2.776251
| 19> N      -0.328502   -0.942831    0.038233
| 20> C       0.322089   -1.905343   -0.867829
| 21> C      -0.600511    0.334148   -0.547020
| 22> C       0.585670    1.167423   -1.032624
| 23> C       0.339152    2.648058   -0.702344
| 24> C       0.749667    1.013372   -2.550060
| 25> N       1.833771    0.732076   -0.403668
| 26> C       2.022399    0.697087    0.929966
| 27> O       1.226889    1.089453    1.774405
| 28> C       3.340010    0.126829    1.307861
| 29> N       3.803021   -0.065909    2.507412
| 30> N       5.048268   -0.609544    2.366363
| 31> C       5.268331   -0.714271    1.094686
| 32> C       6.478944   -1.238878    0.425153
| 33> O       4.229028   -0.269552    0.365824
| 34> N      -1.753833    0.868423   -0.657822
| 35> H      -5.954791    2.765105   -0.287537
| 36> H      -5.368959    3.462540   -1.822532
| 37> H      -6.142412    1.854678   -1.805508
| 38> H      -4.591841   -1.019274    0.880001
| 39> H      -1.540731   -1.743950    3.299670
| 40> H      -2.707049   -2.990823    2.781929
| 41> H      -1.072615   -3.465935    3.305159
| 42> H       0.430841   -2.853508   -0.341765
| 43> H      -0.266292   -2.061601   -1.778663
| 44> H       1.312610   -1.543111   -1.134552
| 45> H      -0.566066    2.980430   -1.209254
| 46> H       1.181416    3.249375   -1.040255
| 47> H       0.209909    2.784172    0.370789
| 48> H       1.537204    1.670760   -2.915487
| 49> H       1.004038   -0.011416   -2.812256
| 50> H      -0.186813    1.276955   -3.040052
| 51> H       2.586962    0.447653   -1.003966
| 52> H       6.893724   -0.481691   -0.239434
| 53> H       6.226142   -2.111643   -0.176436
| 54> H       7.219803   -1.514214    1.171664
| 55> **                         ****END OF INPUT****

CARTESIAN COORDINATES (ANGSTROEM)
---------------------------------
  C     -5.486889    2.539080   -1.253597
  O     -4.195870    1.985196   -1.081607
  C     -4.160772    0.785068   -0.374633
  O     -5.243622    0.293889    0.043609
  C     -2.899519    0.219240   -0.212333
  C     -2.714434   -1.012037    0.545072
  O     -3.805827   -1.572979    1.157909
  C     -1.479248   -1.522664    0.694342
  O     -1.134586   -2.637062    1.454936
  C     -1.648705   -2.702773    2.776251
  N     -0.328502   -0.942831    0.038233
  C      0.322089   -1.905343   -0.867829
  C     -0.600511    0.334148   -0.547020
  C      0.585670    1.167423   -1.032624
  C      0.339152    2.648058   -0.702344
  C      0.749667    1.013372   -2.550060
  N      1.833771    0.732076   -0.403668
  C      2.022399    0.697087    0.929966
  O      1.226889    1.089453    1.774405
  C      3.340010    0.126829    1.307861
  N      3.803021   -0.065909    2.507412
  N      5.048268   -0.609544    2.366363
  C      5.268331   -0.714271    1.094686
  C      6.478944   -1.238878    0.425153
  O      4.229028   -0.269552    0.365824
  N     -1.753833    0.868423   -0.657822
  H     -5.954791    2.765105   -0.287537
  H     -5.368959    3.462540   -1.822532
  H     -6.142412    1.854678   -1.805508
  H     -4.591841   -1.019274    0.880001
  H     -1.540731   -1.743950    3.299670
  H     -2.707049   -2.990823    2.781929
  H     -1.072615   -3.465935    3.305159
  H      0.430841   -2.853508   -0.341765
  H     -0.266292   -2.061601   -1.778663
  H      1.312610   -1.543111   -1.134552
  H     -0.566066    2.980430   -1.209254
  H      1.181416    3.249375   -1.040255
  H      0.209909    2.784172    0.370789
  H      1.537204    1.670760   -2.915487
  H      1.004038   -0.011416   -2.812256
  H     -0.186813    1.276955   -3.040052
  H      2.586962    0.447653   -1.003966
  H      6.893724   -0.481691   -0.239434
  H      6.226142   -2.111643   -0.176436
  H      7.219803   -1.514214    1.171664

 Total Charge           Charge          ....   -1
 Multiplicity           Mult            ....    1
 Number of Electrons    NEL             ....  194
 Basis Dimension        Dim             ....  649

ORBITAL ENERGIES
----------------

  NO   OCC          E(Eh)            E(eV)
   0   2.0000     -19.060601      -518.6653
   1   2.0000     -18.956443      -515.8310
   2   2.0000     -18.950520      -515.6699
   3   2.0000     -18.936469      -515.2875
   4   2.0000     -18.921894      -514.8909
   5   2.0000     -18.887998      -513.9685
   6   2.0000     -14.199412      -386.3857
   7   2.0000     -14.193340      -386.2204
   8   2.0000     -14.189302      -386.1105
   9   2.0000     -14.161862      -385.3639
  10   2.0000     -14.127442      -384.4272
  11   2.0000     -10.145380      -276.0698
  12   2.0000     -10.142815      -276.0000
  13   2.0000     -10.137288      -275.8496
  14   2.0000     -10.098500      -274.7942
  15   2.0000     -10.083384      -274.3828
  16   2.0000     -10.070483      -274.0318
  17   2.0000     -10.069141      -273.9952
  18   2.0000     -10.059382      -273.7297
  19   2.0000     -10.056692      -273.6565
  20   2.0000     -10.054902      -273.6078
  21   2.0000     -10.043011      -273.2842
  22   2.0000     -10.035050      -273.0676
  23   2.0000     -10.016602      -272.5656
  24   2.0000     -10.012088      -272.4428
  25   2.0000     -10.006576      -272.2928
  26   2.0000      -1.148441       -31.2507
  27   2.0000      -1.013875       -27.5889
  28   2.0000      -1.008458       -27.4415
  29   2.0000      -1.001796       -27.2602
  30   2.0000      -0.975742       -26.5513
  31   2.0000      -0.969522       -26.3820
  32   2.0000      -0.921999       -25.0889
  33   2.0000      -0.919121       -25.0106
  34   2.0000      -0.894696       -24.3459
  35   2.0000      -0.835777       -22.7426
  36   2.0000      -0.825623       -22.4663
  37   2.0000      -0.759734       -20.6734
  38   2.0000      -0.711363       -19.3572
  39   2.0000      -0.707673       -19.2568
  40   2.0000      -0.681558       -18.5461
  41   2.0000      -0.658840       -17.9279
  42   2.0000      -0.651826       -17.7371
  43   2.0000      -0.645584       -17.5672
  44   2.0000      -0.640669       -17.4335
  45   2.0000      -0.599915       -16.3245
  46   2.0000      -0.597062       -16.2469
  47   2.0000      -0.590205       -16.0603
  48   2.0000      -0.570136       -15.5142
  49   2.0000      -0.531072       -14.4512
  50   2.0000      -0.521744       -14.1974
  51   2.0000      -0.510345       -13.8872
  52   2.0000      -0.490887       -13.3577
  53   2.0000      -0.489011       -13.3067
  54   2.0000      -0.466374       -12.6907
  55   2.0000      -0.462503       -12.5853
  56   2.0000      -0.454184       -12.3590
  57   2.0000      -0.435779       -11.8581
  58   2.0000      -0.427114       -11.6224
  59   2.0000      -0.418803       -11.3962
  60   2.0000      -0.412021       -11.2117
  61   2.0000      -0.408642       -11.1197
  62   2.0000      -0.405638       -11.0380
  63   2.0000      -0.400564       -10.8999
  64   2.0000      -0.399374       -10.8675
  65   2.0000      -0.396570       -10.7912
  66   2.0000      -0.393627       -10.7111
  67   2.0000      -0.389455       -10.5976
  68   2.0000      -0.379549       -10.3281
  69   2.0000      -0.378584       -10.3018
  70   2.0000      -0.374657       -10.1949
  71   2.0000      -0.364954        -9.9309
  72   2.0000      -0.357155        -9.7187
  73   2.0000      -0.354221        -9.6389
  74   2.0000      -0.347976        -9.4689
  75   2.0000      -0.346748        -9.4355
  76   2.0000      -0.340692        -9.2707
  77   2.0000      -0.338508        -9.2113
  78   2.0000      -0.323139        -8.7931
  79   2.0000      -0.317355        -8.6357
  80   2.0000      -0.314263        -8.5515
  81   2.0000      -0.310767        -8.4564
  82   2.0000      -0.309435        -8.4202
  83   2.0000      -0.292922        -7.9708
  84   2.0000      -0.289644        -7.8816
  85   2.0000      -0.286263        -7.7896
  86   2.0000      -0.263796        -7.1783
  87   2.0000      -0.257110        -6.9963
  88   2.0000      -0.252602        -6.8737
  89   2.0000      -0.239407        -6.5146
  90   2.0000      -0.235013        -6.3950
  91   2.0000      -0.232818        -6.3353
  92   2.0000      -0.223345        -6.0775
  93   2.0000      -0.213711        -5.8154
  94   2.0000      -0.195198        -5.3116
  95   2.0000      -0.180975        -4.9246
  96   2.0000      -0.099246        -2.7006
  97   0.0000      -0.079694        -2.1686
  98   0.0000      -0.016155        -0.4396
  99   0.0000      -0.004982        -0.1356
 100   0.0000       0.031195         0.8489
 101   0.0000       0.052544         1.4298

MULLIKEN ATOMIC CHARGES
-----------------------
   0 C :   -0.347428
   1 O :   -0.218856
   2 C :    0.184896
   3 O :   -0.553007
   4 C :   -0.236036
   5 C :    0.003481
   6 O :   -0.420049
   7 C :   -0.258520
   8 O :   -0.190077
   9 C :   -0.338609
  10 N :    0.145505
  11 C :   -0.449365
  12 C :    0.167179
  13 C :    0.058346
  14 C :   -0.638789
  15 C :   -0.583151
  16 N :   -0.078864
  17 C :   -0.171752
  18 O :   -0.426151
  19 C :    0.433718
  20 N :   -0.182817
  21 N :   -0.285227
  22 C :    0.389694
  23 C :   -0.636759
  24 O :   -0.060224
  25 N :   -0.177693
  26 H :    0.155122
  27 H :    0.155734
  28 H :    0.155164
  29 H :    0.370329
  30 H :    0.154177
  31 H :    0.164631
  32 H :    0.153496
  33 H :    0.182532
  34 H :    0.165424
  35 H :    0.177953
  36 H :    0.182098
  37 H :    0.176136
  38 H :    0.193754
  39 H :    0.180989
  40 H :    0.190082
  41 H :    0.192597
  42 H :    0.317059
  43 H :    0.198937
  44 H :    0.200443
  45 H :    0.203899
Sum of atomic charges:   -1.0000000

LOEWDIN ATOMIC CHARGES
----------------------
   0 C :   -0.065998
   1 O :   -0.647072
   2 C :    0.347797
   3 O :   -0.621875
   4 C :    0.070991
   5 C :    0.220528
   6 O :   -0.548329
   7 C :    0.289043
   8 O :   -0.666816
   9 C :   -0.060100
  10 N :   -0.753703
  11 C :   -0.124917
  12 C :    0.321303
  13 C :    0.108862
  14 C :   -0.351549
  15 C :   -0.351569
  16 N :   -0.585672
  17 C :    0.371433
  18 O :   -0.454446
  19 C :    0.413967
  20 N :   -0.342269
  21 N :   -0.367050
  22 C :    0.374331
  23 C :   -0.318719
  24 O :   -0.395854
  25 N :   -0.614444
  26 H :    0.166114
  27 H :    0.172693
  28 H :    0.166449
  29 H :    0.305690
  30 H :    0.166715
  31 H :    0.170786
  32 H :    0.171727
  33 H :    0.190615
  34 H :    0.164487
  35 H :    0.183495
  36 H :    0.173825
  37 H :    0.160897
  38 H :    0.178671
  39 H :    0.167043
  40 H :    0.170439
  41 H :    0.174835
  42 H :    0.295893
  43 H :    0.190477
  44 H :    0.190962
  45 H :    0.190314

  Mayer bond orders larger than 0.100000
B(  0-C ,  1-O ) :   0.8559 B(  0-C , 26-H ) :   0.9690 B(  0-C , 27-H ) :   0.9692
B(  0-C , 28-H ) :   0.9691 B(  1-O ,  2-C ) :   1.0422 B(  2-C ,  3-O ) :   1.5212
B(  2-C ,  4-C ) :   1.4139 B(  3-O , 29-H ) :   0.1415 B(  4-C ,  5-C ) :   0.8879
B(  4-C , 25-N ) :   1.0072 B(  5-C ,  6-O ) :   1.0549 B(  5-C ,  7-C ) :   1.6244
B(  6-O ,  7-C ) :   0.1227 B(  6-O , 29-H ) :   0.7177 B(  7-C ,  8-O ) :   1.1903
B(  7-C , 10-N ) :   1.0490 B(  8-O ,  9-C ) :   0.8396 B(  9-C , 30-H ) :   0.9595
B(  9-C , 31-H ) :   0.9623 B(  9-C , 32-H ) :   0.9687 B( 10-N , 11-C ) :   0.8471
B( 10-N , 12-C ) :   0.9970 B( 11-C , 33-H ) :   0.9618 B( 11-C , 34-H ) :   0.9516
B( 11-C , 35-H ) :   0.9521 B( 12-C , 13-C ) :   0.7293 B( 12-C , 25-N ) :   1.7728
B( 13-C , 14-C ) :   0.8744 B( 13-C , 15-C ) :   0.9135 B( 13-C , 16-N ) :   0.9047
B( 14-C , 36-H ) :   0.9659 B( 14-C , 37-H ) :   0.9763 B( 14-C , 38-H ) :   0.9762
B( 15-C , 39-H ) :   0.9656 B( 15-C , 40-H ) :   0.9607 B( 15-C , 41-H ) :   0.9756
B( 16-N , 17-C ) :   1.1347 B( 16-N , 42-H ) :   0.8831 B( 17-C , 18-O ) :   1.9357
B( 17-C , 19-C ) :   0.7778 B( 18-O , 19-C ) :  -0.1230 B( 19-C , 20-N ) :   1.7137
B( 19-C , 22-C ) :   0.1096 B( 19-C , 24-O ) :   1.0671 B( 20-N , 21-N ) :   1.2712
B( 21-N , 22-C ) :   1.6391 B( 22-C , 23-C ) :   0.8265 B( 22-C , 24-O ) :   1.0662
B( 23-C , 43-H ) :   0.9451 B( 23-C , 44-H ) :   0.9412 B( 23-C , 45-H ) :   0.9910

Dispersion correction           -0.021306821
FINAL SINGLE POINT ENERGY     -1308.590077164413

DIPOLE MOMENT
-------------
                                X             Y             Z
Electronic contribution:      5.29608      -1.74298       9.56006
Nuclear contribution   :      1.17323       1.25901     -12.82179
                        -----------------------------------------
Total Dipole Moment    :      6.46931      -0.48397      -3.26173
                        -----------------------------------------
Magnitude (a.u.)       :      7.26121
Magnitude (Debye)      :     18.45652

Rotational constants in cm-1:     0.013117     0.003755     0.003255
Rotational constants in MHz :   393.226764   112.584010    97.581195

                             ****ORCA TERMINATED NORMALLY****
TOTAL RUN TIME: 0 days 0 hours 2 minutes 3 seconds 590 msec
