   * xtb version 6.5.1 (579679a) compiled by 'ehlert@majestix' on 2022-07-11
          program call               : /lustre/hpc/kemi/ree/PhD/git/ReactivityQM/dep/xtb-6.5.1/bin/xtb --gfn 1 /lustre/hpc/kemi/ree/PhD/git/ReactivityQM/calculations/R03/reac02prodE13/conf03/R03_reac02prodE13_conf03_gfn1.xyz --opt --vfukui --chrg -1 --uhf 0 --alpb DMSO

   ID    Z sym.   atoms
    1    6 C      1, 3, 5, 6, 8, 10, 12-16, 18, 20, 23, 24
    2    8 O      2, 4, 7, 9, 19, 25
    3    7 N      11, 17, 21, 22, 26
    4    1 H      27-46

      * Solvation model:               ALPB
        Solvent                        DMSO
        Solvent mass                       7.8130E+01 g/mol
          :  Hamiltonian                  GFN1-xTB          :
 * total energy  :   -87.0056853 Eh     change       -0.3838494E-09 Eh
 * total energy  :   -87.0207452 Eh     change       -0.1505995E-01 Eh
 * total energy  :   -87.0265707 Eh     change       -0.5825476E-02 Eh
 * total energy  :   -87.0279217 Eh     change       -0.1351024E-02 Eh
 * total energy  :   -87.0290419 Eh     change       -0.1120204E-02 Eh
 * total energy  :   -87.0296580 Eh     change       -0.6161136E-03 Eh
 * total energy  :   -87.0300960 Eh     change       -0.4380036E-03 Eh
 * total energy  :   -87.0303788 Eh     change       -0.2827594E-03 Eh
 * total energy  :   -87.0305518 Eh     change       -0.1729796E-03 Eh
 * total energy  :   -87.0306670 Eh     change       -0.1151801E-03 Eh
 * total energy  :   -87.0354375 Eh     change       -0.1418776E-04 Eh
 * total energy  :   -87.0354532 Eh     change       -0.1564227E-04 Eh
 * total energy  :   -87.0354632 Eh     change       -0.1003336E-04 Eh
 * total energy  :   -87.0354698 Eh     change       -0.6551559E-05 Eh
 * total energy  :   -87.0354770 Eh     change       -0.7285295E-05 Eh
 * total energy  :   -87.0354840 Eh     change       -0.6923560E-05 Eh
 * total energy  :   -87.0354910 Eh     change       -0.6996871E-05 Eh
 * total energy  :   -87.0355016 Eh     change       -0.1066306E-04 Eh
 * total energy  :   -87.0355058 Eh     change       -0.4141520E-05 Eh
   *** GEOMETRY OPTIMIZATION CONVERGED AFTER 94 ITERATIONS ***

 final structure:
================
46
 xtb: 6.5.1 (579679a)
C           -5.48688896423026        2.53907966111299       -1.25359722263956
O           -4.19587022045511        1.98519562369504       -1.08160710290956
C           -4.16077248969646        0.78506822076933       -0.37463250246467
O           -5.24362186437343        0.29388949142605        0.04360872441592
C           -2.89951870927038        0.21923983651591       -0.21233310724622
C           -2.71443366253594       -1.01203681412498        0.54507223972408
O           -3.80582717087492       -1.57297945621746        1.15790874347473
C           -1.47924791726305       -1.52266415696558        0.69434194013276
O           -1.13458566090347       -2.63706209649008        1.45493567378305
C           -1.64870518687336       -2.70277252697874        2.77625082363947
N           -0.32850247544175       -0.94283128409548        0.03823341942349
C            0.32208871458172       -1.90534319505061       -0.86782891860649
C           -0.60051131087490        0.33414835991064       -0.54701955978476
C            0.58566997858536        1.16742329898597       -1.03262367194334
C            0.33915209930906        2.64805754078874       -0.70234380719072
C            0.74966708531753        1.01337181910373       -2.55005952990327
N            1.83377061116149        0.73207622768587       -0.40366824337213
C            2.02239928440652        0.69708705883745        0.92996616837499
O            1.22688885005802        1.08945346368420        1.77440497094134
C            3.34000958028404        0.12682907457700        1.30786143148597
N            3.80302141227801       -0.06590851680911        2.50741175209503
N            5.04826768573807       -0.60954397791414        2.36636278863868
C            5.26833056569282       -0.71427086080027        1.09468565669586
C            6.47894372404151       -1.23887767750755        0.42515277397477
O            4.22902824459685       -0.26955240592764        0.36582355151366
N           -1.75383276540828        0.86842280345411       -0.65782218098882
H           -5.95479141467440        2.76510452137195       -0.28753698508004
H           -5.36895925855712        3.46254014276105       -1.82253191091926
H           -6.14241207419605        1.85467848459407       -1.80550786821838
H           -4.59184078763313       -1.01927419942896        0.88000051967979
H           -1.54073084494252       -1.74395028103837        3.29966962145411
H           -2.70704925179411       -2.99082268790418        2.78192907546304
H           -1.07261497683402       -3.46593524198357        3.30515917415284
H            0.43084075738463       -2.85350761887886       -0.34176478296953
H           -0.26629171536309       -2.06160105686983       -1.77866274728185
H            1.31260959900563       -1.54311084348549       -1.13455168658197
H           -0.56606552983366        2.98043003096121       -1.20925368268416
H            1.18141584722553        3.24937537032383       -1.04025524805602
H            0.20990903378852        2.78417172587154        0.37078904263787
H            1.53720363304316        1.67076042872368       -2.91548724364082
H            1.00403843695625       -0.01141638234320       -2.81225568025401
H           -0.18681327956581        1.27695453954988       -3.04005244441140
H            2.58696198238130        0.44765274074332       -1.00396630365132
H            6.89372394026229       -0.48169135425569       -0.23943367452433
H            6.22614212888521       -2.11164273159683       -0.17643559012970
H            7.21980333661854       -1.51421409878842        1.17166360375067

          :  Hamiltonian                  GFN1-xTB          :
         :: total energy             -87.035505774902 Eh    ::
         :: gradient norm              0.000467313113 Eh/a0 ::
         :: HOMO-LUMO gap              0.231557323535 eV    ::
         :: SCC energy               -87.825166313651 Eh    ::
         :: -> Gsolv                  -0.123085565052 Eh    ::
         :: repulsion energy           0.818921595004 Eh    ::

    * Orbital Energies and Occupations

         #    Occupation            Energy/Eh            Energy/eV
      -------------------------------------------------------------
         1        2.0000           -0.8540413             -23.2396
       ...           ...                  ...                  ...
        59        2.0000           -0.4667729             -12.7015
        60        2.0000           -0.4549103             -12.3787
        61        2.0000           -0.4498494             -12.2410
        62        2.0000           -0.4477950             -12.1851
        63        2.0000           -0.4428339             -12.0501
        64        2.0000           -0.4425274             -12.0418
        65        2.0000           -0.4387271             -11.9384
        66        2.0000           -0.4301678             -11.7055
        67        2.0000           -0.4061506             -11.0519
        68        2.0000           -0.4056930             -11.0395
        69        2.0000           -0.3796405             -10.3305
        70        2.0000           -0.3791064             -10.3160
        71        1.9776           -0.3050735              -8.3015 (HOMO)
        72        0.0224           -0.2965639              -8.0699 (LUMO)
        73                         -0.2477870              -6.7426
        74                         -0.2256000              -6.1389
        75                         -0.1922263              -5.2307
        76                         -0.1834923              -4.9931
        77                         -0.1387024              -3.7743
        78                         -0.1225019              -3.3334
        79                         -0.1163319              -3.1656
        80                         -0.1114969              -3.0340
        81                         -0.1090328              -2.9669
        82                         -0.1046279              -2.8471
       ...                                ...                  ...
       144                          0.7324016              19.9297
      -------------------------------------------------------------
                  HL-Gap            0.0085096 Eh            0.2316 eV

Wiberg/Mayer (AO) data.
largest (>0.10) Wiberg bond orders for each atom

     #   Z sym  total        # sym  WBO       # sym  WBO       # sym  WBO
 ---------------------------------------------------------------------------
     1   6 C    3.913 --    28 H    0.987    27 H    0.981    29 H    0.981
                             2 O    0.943
     2   8 O    2.081 --     3 C    0.962     1 C    0.943
     3   6 C    3.861 --     4 O    1.388     5 C    1.350     2 O    0.962
     4   8 O    1.803 --     3 C    1.388     5 C    0.106    30 H    0.104
     5   6 C    3.855 --     3 C    1.350    26 N    1.108     6 C    1.084
                             4 O    0.106
     6   6 C    3.907 --     8 C    1.641     5 C    1.084     7 O    1.027
     7   8 O    1.981 --     6 C    1.027    30 H    0.769
     8   6 C    3.824 --     6 C    1.641    11 N    0.962     9 O    0.953
     9   8 O    2.044 --     8 C    0.953    10 C    0.935
    10   6 C    3.913 --    33 H    0.986    31 H    0.983    32 H    0.980
                             9 O    0.935
    11   7 N    3.141 --    13 C    1.003     8 C    0.962    12 C    0.946
    12   6 C    3.968 --    34 H    0.984    36 H    0.983    35 H    0.983
                            11 N    0.946
    13   6 C    3.939 --    26 N    1.711    11 N    1.003    14 C    0.964
    14   6 C    3.927 --    16 C    0.990    15 C    0.987    13 C    0.964
                            17 N    0.921
    15   6 C    3.992 --    38 H    0.987    14 C    0.987    37 H    0.984
                            39 H    0.982
    16   6 C    3.992 --    14 C    0.990    40 H    0.985    42 H    0.984
                            41 H    0.982
    17   7 N    3.357 --    18 C    1.261    14 C    0.921    43 H    0.902
                            19 O    0.175
    18   6 C    3.912 --    19 O    1.559    17 N    1.261    20 C    0.997
    19   8 O    1.865 --    18 C    1.559    17 N    0.175
    20   6 C    3.851 --    21 N    1.606    25 O    1.039    18 C    0.997
    21   7 N    2.967 --    20 C    1.606    22 N    1.189
    22   7 N    2.980 --    23 C    1.621    21 N    1.189
    23   6 C    3.865 --    22 N    1.621    25 O    1.068    24 C    1.030
    24   6 C    3.988 --    23 C    1.030    46 H    0.983    44 H    0.965
                            45 H    0.964
    25   8 O    2.300 --    23 C    1.068    20 C    1.039
    26   7 N    3.044 --    13 C    1.711     5 C    1.108
    27   1 H    1.018 --     1 C    0.981
    28   1 H    1.019 --     1 C    0.987
    29   1 H    1.018 --     1 C    0.981
    30   1 H    0.886 --     7 O    0.769     4 O    0.104
    31   1 H    1.013 --    10 C    0.983
    32   1 H    1.027 --    10 C    0.980
    33   1 H    1.019 --    10 C    0.986
    34   1 H    1.021 --    12 C    0.984
    35   1 H    1.008 --    12 C    0.983
    36   1 H    1.019 --    12 C    0.983
    37   1 H    1.021 --    15 C    0.984
    38   1 H    1.005 --    15 C    0.987
    39   1 H    1.018 --    15 C    0.982
    40   1 H    1.001 --    16 C    0.985
    41   1 H    1.005 --    16 C    0.982
    42   1 H    1.008 --    16 C    0.984
    43   1 H    0.947 --    17 N    0.902
    44   1 H    0.998 --    24 C    0.965
    45   1 H    0.997 --    24 C    0.964
    46   1 H    1.000 --    24 C    0.983
 ---------------------------------------------------------------------------

           -------------------------------------------------
          | TOTAL ENERGY              -87.035505774902 Eh   |
          | GRADIENT NORM               0.000467313113 Eh/α |
          | HOMO-LUMO GAP               0.231557323535 eV   |
           -------------------------------------------------

 * finished run on 2023/06/20 at 15:34:24.066
