   * xtb version 6.5.1 (579679a) compiled by 'ehlert@majestix' on 2022-07-11
          program call               : /lustre/hpc/kemi/ree/PhD/git/ReactivityQM/dep/xtb-6.5.1/bin/xtb --gfn 1 /lustre/hpc/kemi/ree/PhD/git/ReactivityQM/calculations/R02methylcation/reac01prodE13/conf18/R02methylcation_reac01prodE13_conf18_gfn1.xyz --opt --vfukui --chrg -2 --uhf 0 --alpb DMSO

   ID    Z sym.   atoms
    1    6 C      1, 3, 5, 6, 8, 10, 12-15, 17, 19, 22, 23
    2    8 O      2, 4, 7, 9, 18, 24
    3    7 N      11, 16, 20, 21, 25
    4    1 H      26-42

      * Solvation model:               ALPB
        Solvent                        DMSO
        Solvent mass                       7.8130E+01 g/mol
          :  Hamiltonian                  GFN1-xTB          :
 * total energy  :   -83.5658102 Eh     change       -0.7317169E-10 Eh
 * total energy  :   -83.5797838 Eh     change       -0.1397359E-01 Eh
 * total energy  :   -83.5853676 Eh     change       -0.5583743E-02 Eh
 * total energy  :   -83.5863450 Eh     change       -0.9774002E-03 Eh
 * total energy  :   -83.5868056 Eh     change       -0.4606125E-03 Eh
 * total energy  :   -83.5869368 Eh     change       -0.1311839E-03 Eh
 * total energy  :   -83.5870250 Eh     change       -0.8820739E-04 Eh
 * total energy  :   -83.5870969 Eh     change       -0.7190324E-04 Eh
 * total energy  :   -83.5871905 Eh     change       -0.9358338E-04 Eh
 * total energy  :   -83.5873358 Eh     change       -0.1453099E-03 Eh
 * total energy  :   -83.5938399 Eh     change       -0.1077409E-04 Eh
 * total energy  :   -83.5938594 Eh     change       -0.1947261E-04 Eh
 * total energy  :   -83.5938662 Eh     change       -0.6823081E-05 Eh
 * total energy  :   -83.5938786 Eh     change       -0.1240703E-04 Eh
 * total energy  :   -83.5938901 Eh     change       -0.1145703E-04 Eh
 * total energy  :   -83.5938980 Eh     change       -0.7864292E-05 Eh
 * total energy  :   -83.5939062 Eh     change       -0.8202833E-05 Eh
 * total energy  :   -83.5939147 Eh     change       -0.8509658E-05 Eh
 * total energy  :   -83.5939195 Eh     change       -0.4873282E-05 Eh
   *** GEOMETRY OPTIMIZATION CONVERGED AFTER 78 ITERATIONS ***

 final structure:
================
42
 xtb: 6.5.1 (579679a)
C           -3.48500780578924        0.80953291723811        4.13181580320937
O           -3.48210561901479        0.74982424644194        2.72406250051241
C           -2.24202410376738        0.43569871462126        2.14717368121469
O           -1.26927389580449        0.24992696175713        2.91362364380116
C           -2.22820778804369        0.36116719571096        0.74077190975798
C           -3.39092253163103        0.56194158260002       -0.15265482819372
O           -4.55140356957242        0.87377493280870        0.26494176645551
C           -3.10930430353509        0.37350795448039       -1.50816919453725
O           -4.03584047803003        0.44719789928223       -2.54966517012816
C           -4.71501329038428        1.68795368344884       -2.69162008434332
N           -1.81018772110733        0.07067332107668       -1.96383360682982
C           -0.79579089176362       -0.10470401537754       -1.05847209823058
C            0.57877261492019       -0.44869142512089       -1.61796354491707
C            0.51520491352290       -1.77479837253675       -2.39445041330122
C            1.05315770303657        0.68954406385857       -2.54156918178928
N            1.46918513291057       -0.59540823265991       -0.47742802648500
C            2.83682863540894       -0.73847673633453       -0.59638113636808
O            3.40578807732252       -1.04217396869083       -1.66754225666290
C            3.50511717002344       -0.55099526166011        0.66121199303872
N            2.93288706131956       -0.23053555241576        1.82137985564127
N            3.94142413548308       -0.13784164965667        2.74013239035989
C            5.04791928216997       -0.39508046679027        2.12422723233077
C            6.41372550724689       -0.41019107319749        2.70413328158669
O            4.87216662161521       -0.66813674437587        0.80912181006935
N           -0.97084027150415        0.03470761733389        0.20479169056232
H           -3.20466140234517       -0.15416727483747        4.57860386803416
H           -4.49865206227433        1.06483275289874        4.44717212296661
H           -2.79132540162574        1.57432704181646        4.50647369141061
H           -4.00962377088510        2.51464167734478       -2.84839336961972
H           -5.33433900658875        1.90628876055275       -1.81119127828004
H           -5.35811021303313        1.60007207278425       -3.56975722949729
H           -1.68502406029169       -0.07405501185961       -2.94811937876536
H            1.49842469542345       -2.02538051219569       -2.79018976772402
H            0.18377126255853       -2.57732675900446       -1.73496475630617
H           -0.18236048812429       -1.69104554863377       -3.22572220925543
H            1.11778804739938        1.62262974735937       -1.98194823395425
H            2.03102510543295        0.45712027916161       -2.96037136037407
H            0.34823853479232        0.82022462250164       -3.36058040988185
H            1.11968578111530       -0.18103292583747        0.38769708117573
H            7.04227424226332        0.33421535627489        2.21495865594181
H            6.35988473136411       -0.19008999825688        3.76764211201553
H            6.87675041978824       -1.38654087191860        2.56105244536788

          :  Hamiltonian                  GFN1-xTB          :
         :: total energy             -83.593919541006 Eh    ::
         :: gradient norm              0.000745316750 Eh/a0 ::
         :: HOMO-LUMO gap              0.046984046748 eV    ::
         :: SCC energy               -84.321162972944 Eh    ::
         :: -> Gsolv                  -0.283126998475 Eh    ::
         :: repulsion energy           0.752096104859 Eh    ::

    * Orbital Energies and Occupations

         #    Occupation            Energy/Eh            Energy/eV
      -------------------------------------------------------------
         1        2.0000           -0.8039220             -21.8758
       ...           ...                  ...                  ...
        56        2.0000           -0.4333470             -11.7920
        57        2.0000           -0.4312362             -11.7345
        58        2.0000           -0.4256258             -11.5819
        59        2.0000           -0.4088358             -11.1250
        60        2.0000           -0.4060921             -11.0503
        61        2.0000           -0.4050726             -11.0226
        62        2.0000           -0.3975496             -10.8179
        63        2.0000           -0.3894234             -10.5967
        64        2.0000           -0.3878772             -10.5547
        65        2.0000           -0.3833567             -10.4317
        66        2.0000           -0.3409211              -9.2769
        67        2.0000           -0.3346688              -9.1068
        68        1.4255           -0.2668942              -7.2626 (HOMO)
        69        0.5745           -0.2651676              -7.2156 (LUMO)
        70                         -0.2117605              -5.7623
        71                         -0.1992066              -5.4207
        72                         -0.1619714              -4.4075
        73                         -0.1403753              -3.8198
        74                         -0.1256602              -3.4194
        75                         -0.1068842              -2.9085
        76                         -0.1052871              -2.8650
        77                         -0.1050526              -2.8586
        78                         -0.0978132              -2.6616
        79                         -0.0733819              -1.9968
       ...                                ...                  ...
       134                          0.7133821              19.4121
      -------------------------------------------------------------
                  HL-Gap            0.0017266 Eh            0.0470 eV

Wiberg/Mayer (AO) data.
largest (>0.10) Wiberg bond orders for each atom

     #   Z sym  total        # sym  WBO       # sym  WBO       # sym  WBO
 ---------------------------------------------------------------------------
     1   6 C    3.924 --    27 H    0.987    26 H    0.980    28 H    0.980
                             2 O    0.957
     2   8 O    2.067 --     1 C    0.957     3 C    0.943
     3   6 C    3.788 --     4 O    1.438     5 C    1.303     2 O    0.943
     4   8 O    1.695 --     3 C    1.438
     5   6 C    3.754 --     3 C    1.303    25 N    1.097     6 C    1.070
     6   6 C    3.924 --     7 O    1.383     8 C    1.347     5 C    1.070
     7   8 O    1.680 --     6 C    1.383     8 C    0.119
     8   6 C    3.531 --     6 C    1.347    11 N    1.006     9 O    0.947
                             7 O    0.119
     9   8 O    2.008 --     8 C    0.947    10 C    0.935
    10   6 C    3.910 --    31 H    0.987    29 H    0.983    30 H    0.979
                             9 O    0.935
    11   7 N    3.241 --    12 C    1.127     8 C    1.006    32 H    0.911
                            25 N    0.108
    12   6 C    3.929 --    25 N    1.618    11 N    1.127    13 C    0.973
    13   6 C    3.952 --    14 C    0.985    15 C    0.980    12 C    0.973
                            16 N    0.951
    14   6 C    3.991 --    34 H    0.987    35 H    0.986    13 C    0.985
                            33 H    0.981
    15   6 C    3.990 --    36 H    0.987    38 H    0.986    37 H    0.981
                            13 C    0.980
    16   7 N    3.195 --    17 C    1.136    13 C    0.951    39 H    0.893
                            18 O    0.124
    17   6 C    3.776 --    18 O    1.444    16 N    1.136    19 C    1.128
    18   8 O    1.700 --    17 C    1.444    16 N    0.124
    19   6 C    3.693 --    20 N    1.416    17 C    1.128    24 O    0.981
    20   7 N    2.765 --    19 C    1.416    21 N    1.186
    21   7 N    2.981 --    22 C    1.628    20 N    1.186
    22   6 C    3.821 --    21 N    1.628    24 O    1.050    23 C    1.024
    23   6 C    3.994 --    22 C    1.024    41 H    0.986    42 H    0.971
                            40 H    0.971
    24   8 O    2.189 --    22 C    1.050    19 C    0.981
    25   7 N    2.982 --    12 C    1.618     5 C    1.097    11 N    0.108
    26   1 H    1.022 --     1 C    0.980
    27   1 H    1.021 --     1 C    0.987
    28   1 H    1.022 --     1 C    0.980
    29   1 H    1.014 --    10 C    0.983
    30   1 H    1.038 --    10 C    0.979
    31   1 H    1.020 --    10 C    0.987
    32   1 H    0.960 --    11 N    0.911
    33   1 H    1.020 --    14 C    0.981
    34   1 H    1.010 --    14 C    0.987
    35   1 H    1.006 --    14 C    0.986
    36   1 H    1.007 --    15 C    0.987
    37   1 H    1.016 --    15 C    0.981
    38   1 H    1.006 --    15 C    0.986
    39   1 H    0.997 --    16 N    0.893
    40   1 H    1.001 --    23 C    0.971
    41   1 H    1.004 --    23 C    0.986
    42   1 H    1.001 --    23 C    0.971
 ---------------------------------------------------------------------------

           -------------------------------------------------
          | TOTAL ENERGY              -83.593919541006 Eh   |
          | GRADIENT NORM               0.000745316750 Eh/α |
          | HOMO-LUMO GAP               0.046984046748 eV   |
           -------------------------------------------------

 * finished run on 2023/06/21 at 17:25:52.373
