   * xtb version 6.5.1 (579679a) compiled by 'ehlert@majestix' on 2022-07-11
          program call               : /lustre/hpc/kemi/ree/PhD/git/ReactivityQM/dep/xtb-6.5.1/bin/xtb --gfn 1 /lustre/hpc/kemi/ree/PhD/git/ReactivityQM/calculations/R01/reac01prodE01/conf13/R01_reac01prodE01_conf13_gfn1.xyz --opt --vfukui --chrg -1 --uhf 0 --alpb DMSO

   ID    Z sym.   atoms
    1    6 C      1, 3, 4, 6, 9, 10
    2    8 O      2, 5, 11
    3    7 N      7, 8
    4    1 H      12-20

      * Solvation model:               ALPB
        Solvent                        DMSO
        Solvent mass                       7.8130E+01 g/mol
          :  Hamiltonian                  GFN1-xTB          :
 * total energy  :   -38.3305847 Eh     change       -0.3645084E-11 Eh
 * total energy  :   -38.3388776 Eh     change       -0.8292937E-02 Eh
 * total energy  :   -38.3422571 Eh     change       -0.3379502E-02 Eh
 * total energy  :   -38.3429514 Eh     change       -0.6943296E-03 Eh
 * total energy  :   -38.3432088 Eh     change       -0.2573485E-03 Eh
 * total energy  :   -38.3432969 Eh     change       -0.8806208E-04 Eh
 * total energy  :   -38.3433619 Eh     change       -0.6500096E-04 Eh
 * total energy  :   -38.3433894 Eh     change       -0.2751840E-04 Eh
 * total energy  :   -38.3434049 Eh     change       -0.1549859E-04 Eh
 * total energy  :   -38.3434235 Eh     change       -0.1865645E-04 Eh
 * total energy  :   -38.3435057 Eh     change       -0.1156174E-04 Eh
 * total energy  :   -38.3435343 Eh     change       -0.2857055E-04 Eh
 * total energy  :   -38.3435395 Eh     change       -0.5210628E-05 Eh
 * total energy  :   -38.3435804 Eh     change       -0.4095672E-04 Eh
 * total energy  :   -38.3435976 Eh     change       -0.1722073E-04 Eh
 * total energy  :   -38.3436381 Eh     change       -0.4044693E-04 Eh
 * total energy  :   -38.3436503 Eh     change       -0.1217458E-04 Eh
 * total energy  :   -38.3436622 Eh     change       -0.1189246E-04 Eh
 * total energy  :   -38.3436649 Eh     change       -0.2732862E-05 Eh
   *** GEOMETRY OPTIMIZATION CONVERGED AFTER 22 ITERATIONS ***

 final structure:
================
20
 xtb: 6.5.1 (579679a)
C           -1.49660973807871        1.21492912102142        1.71770070829346
O           -1.84834029590404        0.75080279814074        0.43750511473296
C           -1.39214206176535       -0.65849407644491        0.14348333708115
C           -2.31127353541255       -1.05970017224970       -1.05431631664022
O           -1.39095607843764       -1.45820853229830        1.14919291454837
C            0.04716239410295       -0.46223345046506       -0.47528282740200
N            0.47152465898386       -0.91891868473449       -1.61321079265823
N            1.81841267970042       -0.61747124432770       -1.69377240053970
C            2.11469261294017       -0.00403252120867       -0.59748869411709
C            3.43908814877127        0.52766581901451       -0.19293359628873
O            1.05024912175418        0.12501095469085        0.21669660700142
H           -2.11416541991879        2.09039571208501        1.94118144019042
H           -0.43777713447466        1.51460470427040        1.77019001681182
H           -1.67833154801918        0.45181983523871        2.49015419906408
H           -1.97756598214605       -2.01673451087807       -1.45082872668577
H           -2.27829468556778       -0.30588643689234       -1.83871997768094
H           -3.32972379216403       -1.15825790079659       -0.68421153854789
H            3.78953511796993        0.02368067374458        0.70755964740089
H            3.36933832564889        1.59334460042312        0.02215883956321
H            4.15517721201725        0.36768331166655       -0.99505695412704

          :  Hamiltonian                  GFN1-xTB          :
         :: total energy             -38.343664888275 Eh    ::
         :: gradient norm              0.000599904170 Eh/a0 ::
         :: HOMO-LUMO gap              3.310092537987 eV    ::
         :: SCC energy               -38.653350942923 Eh    ::
         :: -> Gsolv                  -0.102723086193 Eh    ::
         :: repulsion energy           0.318202948597 Eh    ::

    * Orbital Energies and Occupations

         #    Occupation            Energy/Eh            Energy/eV
      -------------------------------------------------------------
         1        2.0000           -0.8204980             -22.3269
       ...           ...                  ...                  ...
        19        2.0000           -0.5077157             -13.8156
        20        2.0000           -0.5023334             -13.6692
        21        2.0000           -0.4800821             -13.0637
        22        2.0000           -0.4723228             -12.8526
        23        2.0000           -0.4630234             -12.5995
        24        2.0000           -0.4616179             -12.5613
        25        2.0000           -0.4458813             -12.1330
        26        2.0000           -0.4392206             -11.9518
        27        2.0000           -0.4178892             -11.3713
        28        2.0000           -0.4151082             -11.2957
        29        2.0000           -0.4039756             -10.9927
        30        2.0000           -0.3681918             -10.0190
        31        2.0000           -0.3498746              -9.5206 (HOMO)
        32                         -0.2282310              -6.2105 (LUMO)
        33                         -0.2137889              -5.8175
        34                         -0.1302613              -3.5446
        35                         -0.0993409              -2.7032
        36                         -0.0843213              -2.2945
        37                         -0.0630546              -1.7158
        38                         -0.0621833              -1.6921
        39                         -0.0362105              -0.9853
        40                         -0.0325602              -0.8860
        41                         -0.0282009              -0.7674
        42                         -0.0260111              -0.7078
       ...                                ...                  ...
        62                          0.6070052              16.5175
      -------------------------------------------------------------
                  HL-Gap            0.1216437 Eh            3.3101 eV

Wiberg/Mayer (AO) data.
largest (>0.10) Wiberg bond orders for each atom

     #   Z sym  total        # sym  WBO       # sym  WBO       # sym  WBO
 ---------------------------------------------------------------------------
     1   6 C    3.931 --    12 H    0.985    13 H    0.980    14 H    0.975
                             2 O    0.970
     2   8 O    1.945 --     1 C    0.970     3 C    0.790
     3   6 C    3.901 --     5 O    1.257     4 C    0.939     6 C    0.866
                             2 O    0.790
     4   6 C    3.993 --    16 H    0.990    15 H    0.988    17 H    0.987
                             3 C    0.939
     5   8 O    1.554 --     3 C    1.257
     6   6 C    3.805 --     7 N    1.653    11 O    1.053     3 C    0.866
     7   7 N    2.966 --     6 C    1.653     8 N    1.149
     8   7 N    2.975 --     9 C    1.654     7 N    1.149
     9   6 C    3.888 --     8 N    1.654    11 O    1.066    10 C    1.024
    10   6 C    3.993 --     9 C    1.024    20 H    0.985    19 H    0.971
                            18 H    0.969
    11   8 O    2.307 --     9 C    1.066     6 C    1.053
    12   1 H    1.022 --     1 C    0.985
    13   1 H    1.024 --     1 C    0.980
    14   1 H    1.032 --     1 C    0.975
    15   1 H    1.019 --     4 C    0.988
    16   1 H    1.015 --     4 C    0.990
    17   1 H    1.017 --     4 C    0.987
    18   1 H    1.002 --    10 C    0.969
    19   1 H    1.001 --    10 C    0.971
    20   1 H    1.003 --    10 C    0.985
 ---------------------------------------------------------------------------

           -------------------------------------------------
          | TOTAL ENERGY              -38.343664888275 Eh   |
          | GRADIENT NORM               0.000599904170 Eh/α |
          | HOMO-LUMO GAP               3.310092537987 eV   |
           -------------------------------------------------

 * finished run on 2023/06/20 at 14:52:37.869
