   * xtb version 6.5.1 (579679a) compiled by 'ehlert@majestix' on 2022-07-11
          program call               : /lustre/hpc/kemi/ree/PhD/git/ReactivityQM/dep/xtb-6.5.1/bin/xtb --gfn 1 /lustre/hpc/kemi/ree/PhD/git/ReactivityQM/calculations/R03/reac02prodE11/conf20/R03_reac02prodE11_conf20_gfn1.xyz --opt --vfukui --chrg -1 --uhf 0 --alpb DMSO

   ID    Z sym.   atoms
    1    6 C      1, 3, 5, 7-10, 12, 14, 17-19, 22, 23, 25
    2    8 O      2, 4, 13, 20, 24, 26
    3    7 N      6, 11, 15, 16, 21
    4    1 H      27-46

      * Solvation model:               ALPB
        Solvent                        DMSO
        Solvent mass                       7.8130E+01 g/mol
          :  Hamiltonian                  GFN1-xTB          :
 * total energy  :   -87.0437106 Eh     change       -0.8338930E-10 Eh
 * total energy  :   -87.0549453 Eh     change       -0.1123466E-01 Eh
 * total energy  :   -87.0592622 Eh     change       -0.4316924E-02 Eh
 * total energy  :   -87.0599985 Eh     change       -0.7362793E-03 Eh
 * total energy  :   -87.0604029 Eh     change       -0.4044808E-03 Eh
 * total energy  :   -87.0605527 Eh     change       -0.1497104E-03 Eh
 * total energy  :   -87.0606457 Eh     change       -0.9303346E-04 Eh
 * total energy  :   -87.0606943 Eh     change       -0.4864859E-04 Eh
 * total energy  :   -87.0607226 Eh     change       -0.2828939E-04 Eh
 * total energy  :   -87.0607412 Eh     change       -0.1856809E-04 Eh
 * total energy  :   -87.0607554 Eh     change       -0.1418797E-04 Eh
 * total energy  :   -87.0607689 Eh     change       -0.1355829E-04 Eh
 * total energy  :   -87.0607787 Eh     change       -0.9756023E-05 Eh
 * total energy  :   -87.0607925 Eh     change       -0.1381898E-04 Eh
 * total energy  :   -87.0608015 Eh     change       -0.8989329E-05 Eh
 * total energy  :   -87.0608073 Eh     change       -0.5787046E-05 Eh
 * total energy  :   -87.0608117 Eh     change       -0.4450741E-05 Eh
   *** GEOMETRY OPTIMIZATION CONVERGED AFTER 17 ITERATIONS ***

 final structure:
================
46
 xtb: 6.5.1 (579679a)
C           -6.47788778190017       -2.83924969515217        0.06053046402511
O           -5.59418627276939       -1.74446667081906        0.33202888491918
C           -4.40069093137042       -1.78627210850282       -0.28881922637270
O           -4.08380510124547       -2.69464728636764       -1.02268471074241
C           -3.54156932940057       -0.61491155735368        0.01258359922494
N           -2.35819001981866       -0.62243386891988       -0.67041582319574
C           -1.49404164826208        0.33487222973739       -0.55038079539409
C           -0.24281249113116        0.22380114815959       -1.42020305114386
C           -0.17047052867085       -1.19422528283381       -2.01341261640103
C           -0.36601967302754        1.24591590962523       -2.56364553808690
N            0.92610521110081        0.48346252416147       -0.58424738628614
C            2.23428243474530        0.36064178278853       -1.12249561318202
O            2.45141456741326        0.44104051951492       -2.34348545549586
C            3.19330756397940        0.20997562687786       -0.09685855425625
N            2.91631222222868        0.10929595332317        1.19956936707973
N            4.00004220034301        0.00054884838408        1.90299056453246
C            5.13975573517002        0.04137000859466        0.97146199090583
C            6.01554555977565        1.26677722522796        1.28134617376520
C            5.95131093949326       -1.25810085624723        1.08512232719749
O            4.57327525371775        0.15810538648893       -0.32666944595311
N           -1.73168497066799        1.40474721002166        0.27330286866353
C           -0.84520988877206        2.56108117406396        0.43642427635301
C           -2.89913796016443        1.51733733530559        1.02255738529941
O           -3.08230761167336        2.49766633486596        1.73756974741952
C           -3.84103326196714        0.41668388999273        0.86884172878501
O           -4.95961110331992        0.53654741118032        1.60486984528319
H           -7.39449528611771       -2.64591463112117        0.61220385192470
H           -6.68445120985062       -2.89486536598777       -1.01073215827251
H           -6.02501905948925       -3.77623913893613        0.39254220703448
H           -1.04957585046366       -1.38835133689781       -2.62541419627937
H           -0.12885990938260       -1.93413691173421       -1.21529489711210
H            0.71967053267817       -1.28409496642819       -2.63398793825485
H           -1.32670312109576        1.11361284056512       -3.05992082912369
H            0.42948373512942        1.09192406476186       -3.29028442248431
H           -0.30340271719982        2.26545686958018       -2.19001190615306
H            0.85231930060404        0.06768776950731        0.33899867392031
H            6.85192209694382        1.31786814403658        0.58637056410966
H            6.39468199962687        1.19859752332246        2.29887739717333
H            5.41640094211309        2.17083782303541        1.18450823153031
H            6.78200896280861       -1.24598963888157        0.38174526618038
H            5.30715800092598       -2.10680002619411        0.86112681809751
H            6.33715004713861       -1.36123902345467        2.09718837746023
H           -0.68798298548269        2.72610657182530        1.50318884618224
H           -1.33507111382026        3.43895561419943        0.01406217929970
H            0.10888262809703        2.39108631970252       -0.05096996629859
H           -5.57680610696791       -0.20006369301871        1.46376889412287

          :  Hamiltonian                  GFN1-xTB          :
         :: total energy             -87.060811748086 Eh    ::
         :: gradient norm              0.000481932249 Eh/a0 ::
         :: HOMO-LUMO gap              0.178089699122 eV    ::
         :: SCC energy               -87.852819401282 Eh    ::
         :: -> Gsolv                  -0.112235716549 Eh    ::
         :: repulsion energy           0.820864686992 Eh    ::

    * Orbital Energies and Occupations

         #    Occupation            Energy/Eh            Energy/eV
      -------------------------------------------------------------
         1        2.0000           -0.8372441             -22.7826
       ...           ...                  ...                  ...
        59        2.0000           -0.4767293             -12.9725
        60        2.0000           -0.4728487             -12.8669
        61        2.0000           -0.4623607             -12.5815
        62        2.0000           -0.4515022             -12.2860
        63        2.0000           -0.4472253             -12.1696
        64        2.0000           -0.4417184             -12.0198
        65        2.0000           -0.4339585             -11.8086
        66        2.0000           -0.4240821             -11.5399
        67        2.0000           -0.4170819             -11.3494
        68        2.0000           -0.4120560             -11.2126
        69        2.0000           -0.3989574             -10.8562
        70        2.0000           -0.3773451             -10.2681
        71        1.9381           -0.3216836              -8.7535 (HOMO)
        72        0.0619           -0.3151389              -8.5754 (LUMO)
        73                         -0.2698923              -7.3441
        74                         -0.2460241              -6.6947
        75                         -0.2320226              -6.3137
        76                         -0.1477636              -4.0209
        77                         -0.1347781              -3.6675
        78                         -0.1339297              -3.6444
        79                         -0.1283785              -3.4934
        80                         -0.1099785              -2.9927
        81                         -0.1057812              -2.8785
        82                         -0.1015201              -2.7625
       ...                                ...                  ...
       144                          0.7303285              19.8733
      -------------------------------------------------------------
                  HL-Gap            0.0065447 Eh            0.1781 eV

Wiberg/Mayer (AO) data.
largest (>0.10) Wiberg bond orders for each atom

     #   Z sym  total        # sym  WBO       # sym  WBO       # sym  WBO
 ---------------------------------------------------------------------------
     1   6 C    3.867 --    27 H    0.986    28 H    0.980    29 H    0.980
                             2 O    0.890
     2   8 O    2.190 --     3 C    1.074     1 C    0.890     4 O    0.125
     3   6 C    3.828 --     4 O    1.658     2 O    1.074     5 C    1.018
     4   8 O    1.912 --     3 C    1.658     2 O    0.125
     5   6 C    3.946 --    25 C    1.469     6 N    1.189     3 C    1.018
     6   7 N    3.027 --     7 C    1.563     5 C    1.189
     7   6 C    3.916 --     6 N    1.563    21 N    1.173     8 C    0.973
     8   6 C    3.955 --     9 C    0.989    10 C    0.980     7 C    0.973
                            11 N    0.954
     9   6 C    3.992 --     8 C    0.989    31 H    0.986    30 H    0.985
                            32 H    0.982
    10   6 C    3.991 --    33 H    0.987    35 H    0.982     8 C    0.980
                            34 H    0.976
    11   7 N    3.172 --    12 C    1.033     8 C    0.954    36 H    0.918
    12   6 C    3.914 --    13 O    1.478    14 C    1.222    11 N    1.033
    13   8 O    1.818 --    12 C    1.478
    14   6 C    3.822 --    15 N    1.379    12 C    1.222    20 O    0.945
                            16 N    0.144
    15   7 N    3.049 --    16 N    1.477    14 C    1.379
    16   7 N    2.857 --    15 N    1.477    17 C    0.980    14 C    0.144
    17   6 C    3.898 --    16 N    0.980    19 C    0.978    18 C    0.977
                            20 O    0.925
    18   6 C    3.991 --    38 H    0.988    37 H    0.986    39 H    0.985
                            17 C    0.977
    19   6 C    3.991 --    42 H    0.988    40 H    0.986    41 H    0.985
                            17 C    0.978
    20   8 O    2.055 --    14 C    0.945    17 C    0.925
    21   7 N    3.494 --     7 C    1.173    23 C    1.115    22 C    0.930
                            24 O    0.133
    22   6 C    3.924 --    44 H    0.978    43 H    0.977    45 H    0.972
                            21 N    0.930
    23   6 C    3.906 --    24 O    1.560    21 N    1.115    25 C    1.087
    24   8 O    1.869 --    23 C    1.560    21 N    0.133
    25   6 C    3.894 --     5 C    1.469    26 O    1.090    23 C    1.087
    26   8 O    2.067 --    25 C    1.090    46 H    0.807
    27   1 H    1.010 --     1 C    0.986
    28   1 H    1.007 --     1 C    0.980
    29   1 H    1.007 --     1 C    0.980
    30   1 H    1.015 --     9 C    0.985
    31   1 H    1.009 --     9 C    0.986
    32   1 H    1.013 --     9 C    0.982
    33   1 H    1.005 --    10 C    0.987
    34   1 H    1.021 --    10 C    0.976
    35   1 H    1.005 --    10 C    0.982
    36   1 H    0.982 --    11 N    0.918
    37   1 H    1.007 --    18 C    0.986
    38   1 H    1.009 --    18 C    0.988
    39   1 H    1.013 --    18 C    0.985
    40   1 H    1.007 --    19 C    0.986
    41   1 H    1.013 --    19 C    0.985
    42   1 H    1.009 --    19 C    0.988
    43   1 H    1.008 --    22 C    0.977
    44   1 H    1.005 --    22 C    0.978
    45   1 H    1.022 --    22 C    0.972
    46   1 H    0.859 --    26 O    0.807
 ---------------------------------------------------------------------------

           -------------------------------------------------
          | TOTAL ENERGY              -87.060811748086 Eh   |
          | GRADIENT NORM               0.000481932249 Eh/α |
          | HOMO-LUMO GAP               0.178089699122 eV   |
           -------------------------------------------------

 * finished run on 2023/06/20 at 15:32:28.121
