   * xtb version 6.5.1 (579679a) compiled by 'ehlert@majestix' on 2022-07-11
          program call               : /lustre/hpc/kemi/ree/PhD/git/ReactivityQM/dep/xtb-6.5.1/bin/xtb --gfn 1 /lustre/hpc/kemi/ree/PhD/git/ReactivityQM/calculations/R02methylcation/reac01prodN14/conf02/R02methylcation_reac01prodN14_conf02_gfn1.xyz --opt --vfukui --chrg 0 --uhf 0 --alpb DMSO

   ID    Z sym.   atoms
    1    6 C      1, 3, 5, 6, 8, 9, 12-15, 17, 19, 22, 23
    2    8 O      2, 4, 7, 10, 18, 24
    3    7 N      11, 16, 20, 21, 25
    4    1 H      26-42

      * Solvation model:               ALPB
        Solvent                        DMSO
        Solvent mass                       7.8130E+01 g/mol
          :  Hamiltonian                  GFN1-xTB          :
 * total energy  :   -82.8984937 Eh     change       -0.6536993E-10 Eh
 * total energy  :   -82.9141910 Eh     change       -0.1569723E-01 Eh
 * total energy  :   -82.9240761 Eh     change       -0.9885122E-02 Eh
 * total energy  :   -82.9265259 Eh     change       -0.2449850E-02 Eh
 * total energy  :   -82.9289286 Eh     change       -0.2402706E-02 Eh
 * total energy  :   -82.9304181 Eh     change       -0.1489449E-02 Eh
 * total energy  :   -82.9320803 Eh     change       -0.1662176E-02 Eh
 * total energy  :   -82.9334024 Eh     change       -0.1322139E-02 Eh
 * total energy  :   -82.9344464 Eh     change       -0.1044038E-02 Eh
 * total energy  :   -82.9352999 Eh     change       -0.8534459E-03 Eh
 * total energy  :   -82.9746359 Eh     change       -0.5284043E-05 Eh
 * total energy  :   -82.9746416 Eh     change       -0.5745132E-05 Eh
 * total energy  :   -82.9746489 Eh     change       -0.7333101E-05 Eh
 * total energy  :   -82.9746573 Eh     change       -0.8330781E-05 Eh
 * total energy  :   -82.9746653 Eh     change       -0.8063474E-05 Eh
 * total energy  :   -82.9746730 Eh     change       -0.7668768E-05 Eh
 * total energy  :   -82.9746816 Eh     change       -0.8600542E-05 Eh
 * total energy  :   -82.9746884 Eh     change       -0.6813959E-05 Eh
 * total energy  :   -82.9746934 Eh     change       -0.4954396E-05 Eh
   *** GEOMETRY OPTIMIZATION CONVERGED AFTER 85 ITERATIONS ***

 final structure:
================
42
 xtb: 6.5.1 (579679a)
C           -5.45263857452874        1.86657131689945       -1.48266037719809
O           -4.27290470824584        1.12356481849811       -1.15569417044887
C           -4.44861313514457        0.04699852305953       -0.39698121580868
O           -5.51986858474661       -0.31625295350509        0.02988030383674
C           -3.16221175242450       -0.64888597574018       -0.12677967052133
C           -3.14878119402248       -1.76682003679633        0.57117450662299
O           -3.19315608125037       -2.75444910625768        1.17185349985381
C           -0.56682945768281       -1.08696098931504        1.94197869122611
C           -1.36491492272171        0.10849467257158        2.38127309943100
O           -0.00257725275331       -1.82405368116263        2.72246644383923
N           -0.49607582922201       -1.36050407175485        0.58602026332442
C           -0.83318721450135       -0.46704389618635       -0.44771722983775
C            0.30037712979535       -0.01488352882147       -1.35274857588951
C            0.40833575148215       -1.01181320585116       -2.51275464621884
C            0.03065959621952        1.39787317037263       -1.88143798203734
N            1.56225922050382       -0.05204639362392       -0.61733973755741
C            1.76958349317648        0.67929355015753        0.49801867807526
O            0.92319736976226        1.36714898418103        1.04691478016229
C            3.14720796877536        0.54504116906413        1.02758383618515
N            3.63328397577630        1.05387169701612        2.11662816733952
N            4.93400742793484        0.65612581146014        2.19027988068331
C            5.16298504050628       -0.07075455775450        1.14094095223044
C            6.42608432654767       -0.73468247903577        0.75341737014646
O            4.07273304366625       -0.18213807487873        0.36446847552162
N           -2.01544597992518       -0.11766784991524       -0.75328601461824
H           -6.13725595855701        1.24347674562829       -2.06227146739050
H           -5.12594910311634        2.72006090602789       -2.07258191589268
H           -5.95003896437741        2.20212264343206       -0.56978682911324
H           -0.87253482821983        0.54540478391966        3.24795158705533
H           -1.45351606848865        0.85126671614403        1.59469050699782
H           -2.35857975471600       -0.22042426415788        2.68290574447069
H            0.26552817037767       -1.98642643472785        0.36206195618493
H            0.61687565087927       -2.01103421313403       -2.13516759159925
H            1.21026539861341       -0.71268772848904       -3.18469293171440
H           -0.52970976360336       -1.03037345784040       -3.06534203433853
H            0.84564577756342        1.70714738825791       -2.53246722093127
H           -0.90091899968034        1.39610864919030       -2.44479449683451
H           -0.05720772848575        2.10169265668885       -1.05520493904601
H            2.33844527503019       -0.53271267140580       -1.03868142575050
H            6.27248270175656       -1.81102986349676        0.67896440158032
H            6.74854746257257       -0.37417522425898       -0.22308394720819
H            7.19441107545917       -0.52444054445570        1.49365427518245

          :  Hamiltonian                  GFN1-xTB          :
         :: total energy             -82.974693381511 Eh    ::
         :: gradient norm              0.000702732878 Eh/a0 ::
         :: HOMO-LUMO gap              2.775194604179 eV    ::
         :: SCC energy               -83.805655302471 Eh    ::
         :: -> Gsolv                  -0.059131670115 Eh    ::
         :: repulsion energy           0.858740369222 Eh    ::

    * Orbital Energies and Occupations

         #    Occupation            Energy/Eh            Energy/eV
      -------------------------------------------------------------
         1        2.0000           -0.8723147             -23.7369
       ...           ...                  ...                  ...
        55        2.0000           -0.5057908             -13.7633
        56        2.0000           -0.5040974             -13.7172
        57        2.0000           -0.5007422             -13.6259
        58        2.0000           -0.4887488             -13.2995
        59        2.0000           -0.4816463             -13.1063
        60        2.0000           -0.4752437             -12.9320
        61        2.0000           -0.4675562             -12.7229
        62        2.0000           -0.4666992             -12.6995
        63        2.0000           -0.4627003             -12.5907
        64        2.0000           -0.4563165             -12.4170
        65        2.0000           -0.4530561             -12.3283
        66        2.0000           -0.4498817             -12.2419
        67        2.0000           -0.4313911             -11.7387 (HOMO)
        68                         -0.3294045              -8.9636 (LUMO)
        69                         -0.3129799              -8.5166
        70                         -0.3052960              -8.3075
        71                         -0.2845601              -7.7433
        72                         -0.2571435              -6.9972
        73                         -0.2561983              -6.9715
        74                         -0.2006807              -5.4608
        75                         -0.1792449              -4.8775
        76                         -0.1417598              -3.8575
        77                         -0.1400318              -3.8105
        78                         -0.1354811              -3.6866
       ...                                ...                  ...
       134                          1.2011588              32.6852
      -------------------------------------------------------------
                  HL-Gap            0.1019865 Eh            2.7752 eV

Wiberg/Mayer (AO) data.
largest (>0.10) Wiberg bond orders for each atom

     #   Z sym  total        # sym  WBO       # sym  WBO       # sym  WBO
 ---------------------------------------------------------------------------
     1   6 C    3.864 --    27 H    0.985    26 H    0.980    28 H    0.980
                             2 O    0.890
     2   8 O    2.205 --     3 C    1.119     1 C    0.890     4 O    0.129
     3   6 C    3.868 --     4 O    1.640     2 O    1.119     5 C    0.987
     4   8 O    1.916 --     3 C    1.640     2 O    0.129
     5   6 C    3.903 --     6 C    1.577    25 N    1.027     3 C    0.987
                             7 O    0.167
     6   6 C    3.801 --     7 O    1.989     5 C    1.577
     7   8 O    2.288 --     6 C    1.989     5 C    0.167
     8   6 C    3.868 --    10 O    1.663    11 N    1.132     9 C    1.000
     9   6 C    3.991 --     8 C    1.000    30 H    0.978    29 H    0.972
                            31 H    0.957
    10   8 O    1.923 --     8 C    1.663    11 N    0.126
    11   7 N    3.315 --     8 C    1.132    12 C    1.018    32 H    0.888
                            10 O    0.126
    12   6 C    3.933 --    25 N    1.749    11 N    1.018    13 C    0.968
    13   6 C    3.937 --    15 C    0.985    14 C    0.980    12 C    0.968
                            16 N    0.931
    14   6 C    3.988 --    33 H    0.984    35 H    0.984    34 H    0.981
                            13 C    0.980
    15   6 C    3.987 --    36 H    0.985    13 C    0.985    37 H    0.983
                            38 H    0.981
    16   7 N    3.348 --    17 C    1.255    13 C    0.931    39 H    0.891
                            18 O    0.173
    17   6 C    3.916 --    18 O    1.578    16 N    1.255    19 C    0.996
    18   8 O    1.899 --    17 C    1.578    16 N    0.173
    19   6 C    3.873 --    20 N    1.621    24 O    1.047    17 C    0.996
    20   7 N    3.001 --    19 C    1.621    21 N    1.200
    21   7 N    2.982 --    22 C    1.609    20 N    1.200
    22   6 C    3.868 --    21 N    1.609    24 O    1.073    23 C    1.032
    23   6 C    3.986 --    22 C    1.032    42 H    0.982    41 H    0.963
                            40 H    0.962
    24   8 O    2.317 --    22 C    1.073    19 C    1.047
    25   7 N    3.055 --    12 C    1.749     5 C    1.027
    26   1 H    1.006 --     1 C    0.980
    27   1 H    1.009 --     1 C    0.985
    28   1 H    1.006 --     1 C    0.980
    29   1 H    1.005 --     9 C    0.972
    30   1 H    1.014 --     9 C    0.978
    31   1 H    1.002 --     9 C    0.957
    32   1 H    0.942 --    11 N    0.888
    33   1 H    0.997 --    14 C    0.984
    34   1 H    0.996 --    14 C    0.981
    35   1 H    1.002 --    14 C    0.984
    36   1 H    1.000 --    15 C    0.985
    37   1 H    1.010 --    15 C    0.983
    38   1 H    1.010 --    15 C    0.981
    39   1 H    0.932 --    16 N    0.891
    40   1 H    0.996 --    23 C    0.962
    41   1 H    0.996 --    23 C    0.963
    42   1 H    0.998 --    23 C    0.982
 ---------------------------------------------------------------------------

           -------------------------------------------------
          | TOTAL ENERGY              -82.974693381511 Eh   |
          | GRADIENT NORM               0.000702732878 Eh/α |
          | HOMO-LUMO GAP               2.775194604179 eV   |
           -------------------------------------------------

 * finished run on 2023/06/21 at 17:53:39.731
