   * xtb version 6.5.1 (579679a) compiled by 'ehlert@majestix' on 2022-07-11
          program call               : /lustre/hpc/kemi/ree/PhD/git/ReactivityQM/dep/xtb-6.5.1/bin/xtb --gfn 1 /lustre/hpc/kemi/ree/PhD/git/ReactivityQM/calculations/R02/reac01prodE10/conf15/R02_reac01prodE10_conf15_gfn1.xyz --opt --vfukui --chrg -1 --uhf 0 --alpb DMSO

   ID    Z sym.   atoms
    1    6 C      1, 3, 5, 7-10, 12, 14, 17-19, 22, 24
    2    8 O      2, 4, 13, 20, 23, 25
    3    7 N      6, 11, 15, 16, 21
    4    1 H      26-43

      * Solvation model:               ALPB
        Solvent                        DMSO
        Solvent mass                       7.8130E+01 g/mol
          :  Hamiltonian                  GFN1-xTB          :
 * total energy  :   -83.8123027 Eh     change       -0.4829559E-09 Eh
 * total energy  :   -83.8244398 Eh     change       -0.1213708E-01 Eh
 * total energy  :   -83.8289633 Eh     change       -0.4523475E-02 Eh
 * total energy  :   -83.8295242 Eh     change       -0.5609214E-03 Eh
 * total energy  :   -83.8300622 Eh     change       -0.5379989E-03 Eh
 * total energy  :   -83.8302192 Eh     change       -0.1570405E-03 Eh
 * total energy  :   -83.8303512 Eh     change       -0.1319969E-03 Eh
 * total energy  :   -83.8304020 Eh     change       -0.5078217E-04 Eh
 * total energy  :   -83.8304380 Eh     change       -0.3600789E-04 Eh
 * total energy  :   -83.8304617 Eh     change       -0.2364300E-04 Eh
 * total energy  :   -83.8305161 Eh     change       -0.1572333E-04 Eh
 * total energy  :   -83.8305220 Eh     change       -0.5908669E-05 Eh
 * total energy  :   -83.8305360 Eh     change       -0.1394374E-04 Eh
 * total energy  :   -83.8305439 Eh     change       -0.7931279E-05 Eh
 * total energy  :   -83.8305571 Eh     change       -0.1315683E-04 Eh
 * total energy  :   -83.8305625 Eh     change       -0.5441545E-05 Eh
 * total energy  :   -83.8305708 Eh     change       -0.8309913E-05 Eh
 * total energy  :   -83.8305773 Eh     change       -0.6446305E-05 Eh
 * total energy  :   -83.8305800 Eh     change       -0.2697496E-05 Eh
   *** GEOMETRY OPTIMIZATION CONVERGED AFTER 22 ITERATIONS ***

 final structure:
================
43
 xtb: 6.5.1 (579679a)
C            5.99614610140158        2.26093275137202        0.78693570993798
O            4.81731235580982        1.48556170098535        0.62714893889363
C            4.76141984125566        0.73112731621557       -0.51262755790924
O            5.70192713474283        0.75088111728470       -1.32763997032953
C            3.56748559067259       -0.04609896430330       -0.66014772274250
N            2.60267274674176        0.03969409213030        0.33232753079931
C            1.52411037746246       -0.65132119433913        0.21117795845669
C            0.46719113632004       -0.62735963182925        1.30187449650284
C            0.57130677614969        0.68031954345789        2.09948434281120
C            0.73156431917440       -1.84306750674728        2.20690104432649
N           -0.83166652686441       -0.75237345289443        0.63545472055685
C           -2.02164249755114       -0.67687700724373        1.42548796998131
O           -2.03787679208059       -0.96975117515144        2.64985477742028
C           -3.15070355722370       -0.32145172116535        0.68780089746047
N           -4.45118394732201       -0.18999413041368        1.12400347500590
N           -5.11342350132175        0.21815551326353        0.04386458271420
C           -6.53284677415087        0.46730953379725        0.13807548966707
C           -4.34872168790416        0.35671220645662       -1.01615274659595
C           -4.73916963729574        0.78110478800902       -2.38037742579033
O           -3.07851081631621        0.02702737722161       -0.69815214328856
N            1.29604056210557       -1.49157513633181       -0.84317303570748
C            2.18778770731880       -1.66004823367789       -1.91765239890986
O            1.88219988930979       -2.43577934992545       -2.83661628169895
C            3.37214170955437       -0.88153987857732       -1.78007612114786
O            4.30971600339004       -0.97381113935580       -2.76697874613617
H            5.89752817429035        2.80185328139252        1.72766825393833
H            6.10852160507020        2.97204337843604       -0.03793226074608
H            6.88246763803710        1.61881056864720        0.82093708691640
H            0.36363093363476        1.52998792002457        1.44986799871751
H            1.57958247644427        0.78507000821361        2.49951661260483
H           -0.14196178806899        0.67755473249687        2.92227440632960
H            1.76402381953292       -1.81724112271616        2.55586259123100
H            0.06785371824894       -1.83519054261777        3.06946434931808
H            0.57091886250053       -2.76261731964992        1.64484943665759
H           -0.89588673136632       -0.13073160181220       -0.16304443084105
H           -6.72911543907173        1.52822922654413       -0.01032766733336
H           -7.05613150042075       -0.10687676589510       -0.62423457521284
H           -6.86193377551811        0.16314256522197        1.12874917086417
H           -5.42366782382347        1.62725664542868       -2.33493800137477
H           -3.84852424549954        1.06566034600447       -2.93738215813140
H           -5.24033798561698       -0.02967502458309       -2.91349469592804
H            0.41865278932240       -1.98757719534481       -0.89447162359949
H            5.06110375892568       -0.37747451802646       -2.52793827768793

          :  Hamiltonian                  GFN1-xTB          :
         :: total energy             -83.830579963278 Eh    ::
         :: gradient norm              0.000328976848 Eh/a0 ::
         :: HOMO-LUMO gap              0.037413684694 eV    ::
         :: SCC energy               -84.583230274185 Eh    ::
         :: -> Gsolv                  -0.124991036325 Eh    ::
         :: repulsion energy           0.778171232826 Eh    ::

    * Orbital Energies and Occupations

         #    Occupation            Energy/Eh            Energy/eV
      -------------------------------------------------------------
         1        2.0000           -0.8396870             -22.8490
       ...           ...                  ...                  ...
        56        2.0000           -0.4719136             -12.8414
        57        2.0000           -0.4648596             -12.6495
        58        2.0000           -0.4632701             -12.6062
        59        2.0000           -0.4475183             -12.1776
        60        2.0000           -0.4398760             -11.9696
        61        2.0000           -0.4360512             -11.8656
        62        2.0000           -0.4197323             -11.4215
        63        2.0000           -0.4135194             -11.2524
        64        2.0000           -0.4062986             -11.0559
        65        2.0000           -0.4025958             -10.9552
        66        2.0000           -0.3898837             -10.6093
        67        2.0000           -0.3821749             -10.3995
        68        1.3468           -0.2908537              -7.9145 (HOMO)
        69        0.6532           -0.2894788              -7.8771 (LUMO)
        70                         -0.2610583              -7.1038
        71                         -0.2361854              -6.4269
        72                         -0.1942023              -5.2845
        73                         -0.1534001              -4.1742
        74                         -0.1477263              -4.0198
        75                         -0.1386435              -3.7727
        76                         -0.1200720              -3.2673
        77                         -0.1106767              -3.0117
        78                         -0.1025058              -2.7893
        79                         -0.0994078              -2.7050
       ...                                ...                  ...
       136                          0.7067929              19.2328
      -------------------------------------------------------------
                  HL-Gap            0.0013749 Eh            0.0374 eV

Wiberg/Mayer (AO) data.
largest (>0.10) Wiberg bond orders for each atom

     #   Z sym  total        # sym  WBO       # sym  WBO       # sym  WBO
 ---------------------------------------------------------------------------
     1   6 C    3.898 --    26 H    0.987    28 H    0.980    27 H    0.980
                             2 O    0.927
     2   8 O    2.108 --     3 C    1.021     1 C    0.927
     3   6 C    3.726 --     4 O    1.471     5 C    1.166     2 O    1.021
     4   8 O    1.785 --     3 C    1.471
     5   6 C    3.823 --    24 C    1.298     3 C    1.166     6 N    1.135
     6   7 N    2.995 --     7 C    1.611     5 C    1.135
     7   6 C    3.912 --     6 N    1.611    21 N    1.153     8 C    0.976
     8   6 C    3.957 --     9 C    0.989    10 C    0.980     7 C    0.976
                            11 N    0.955
     9   6 C    3.993 --     8 C    0.989    29 H    0.986    30 H    0.985
                            31 H    0.984
    10   6 C    3.991 --    32 H    0.988    34 H    0.986     8 C    0.980
                            33 H    0.978
    11   7 N    3.093 --    12 C    1.009     8 C    0.955    35 H    0.926
    12   6 C    3.804 --    13 O    1.395    14 C    1.302    11 N    1.009
    13   8 O    1.653 --    12 C    1.395
    14   6 C    3.563 --    12 C    1.302    15 N    1.201    20 O    0.881
    15   7 N    2.691 --    14 C    1.201    16 N    1.172    18 C    0.200
    16   7 N    3.638 --    18 C    1.397    15 N    1.172    17 C    0.940
    17   6 C    3.936 --    38 H    0.983    37 H    0.980    36 H    0.977
                            16 N    0.940
    18   6 C    3.771 --    16 N    1.397    20 O    1.066    19 C    1.029
                            15 N    0.200
    19   6 C    3.987 --    18 C    1.029    40 H    0.979    39 H    0.973
                            41 H    0.961
    20   8 O    2.114 --    18 C    1.066    14 C    0.881
    21   7 N    3.330 --     7 C    1.153    22 C    1.038    42 H    0.895
    22   6 C    3.826 --    23 O    1.486    24 C    1.196    21 N    1.038
    23   8 O    1.739 --    22 C    1.486
    24   6 C    3.725 --     5 C    1.298    22 C    1.196    25 O    1.052
    25   8 O    1.979 --    24 C    1.052    43 H    0.789
    26   1 H    1.016 --     1 C    0.987
    27   1 H    1.013 --     1 C    0.980
    28   1 H    1.013 --     1 C    0.980
    29   1 H    1.008 --     9 C    0.986
    30   1 H    1.017 --     9 C    0.985
    31   1 H    1.015 --     9 C    0.984
    32   1 H    1.007 --    10 C    0.988
    33   1 H    1.025 --    10 C    0.978
    34   1 H    1.009 --    10 C    0.986
    35   1 H    0.967 --    11 N    0.926
    36   1 H    0.999 --    17 C    0.977
    37   1 H    0.999 --    17 C    0.980
    38   1 H    1.007 --    17 C    0.983
    39   1 H    0.997 --    19 C    0.973
    40   1 H    0.997 --    19 C    0.979
    41   1 H    0.995 --    19 C    0.961
    42   1 H    0.956 --    21 N    0.895
    43   1 H    0.879 --    25 O    0.789
 ---------------------------------------------------------------------------

           -------------------------------------------------
          | TOTAL ENERGY              -83.830579963278 Eh   |
          | GRADIENT NORM               0.000328976848 Eh/α |
          | HOMO-LUMO GAP               0.037413684694 eV   |
           -------------------------------------------------

 * finished run on 2023/06/20 at 15:10:37.631
