   * xtb version 6.5.1 (579679a) compiled by 'ehlert@majestix' on 2022-07-11
          program call               : /lustre/hpc/kemi/ree/PhD/git/ReactivityQM/dep/xtb-6.5.1/bin/xtb --gfn 1 /lustre/hpc/kemi/ree/PhD/git/ReactivityQM/calculations/R02oxygendeprot/reac01/conf15/R02oxygendeprot_reac01_conf15_gfn1.xyz --opt --vfukui --chrg -1 --uhf 0 --alpb DMSO

   ID    Z sym.   atoms
    1    6 C      1, 3, 5, 7-10, 12, 14, 17, 18, 21, 23
    2    8 O      2, 4, 13, 19, 22, 24
    3    7 N      6, 11, 15, 16, 20
    4    1 H      25-38

      * Solvation model:               ALPB
        Solvent                        DMSO
        Solvent mass                       7.8130E+01 g/mol
          :  Hamiltonian                  GFN1-xTB          :
 * total energy  :   -79.6004050 Eh     change       -0.3315392E-10 Eh
 * total energy  :   -79.6137327 Eh     change       -0.1332762E-01 Eh
 * total energy  :   -79.6190695 Eh     change       -0.5336849E-02 Eh
 * total energy  :   -79.6199982 Eh     change       -0.9286824E-03 Eh
 * total energy  :   -79.6204300 Eh     change       -0.4317817E-03 Eh
 * total energy  :   -79.6205486 Eh     change       -0.1186290E-03 Eh
 * total energy  :   -79.6206056 Eh     change       -0.5702710E-04 Eh
 * total energy  :   -79.6206482 Eh     change       -0.4252314E-04 Eh
 * total energy  :   -79.6206877 Eh     change       -0.3951335E-04 Eh
 * total energy  :   -79.6207309 Eh     change       -0.4325674E-04 Eh
 * total energy  :   -79.6213069 Eh     change       -0.1189147E-04 Eh
 * total energy  :   -79.6213168 Eh     change       -0.9851028E-05 Eh
 * total energy  :   -79.6213308 Eh     change       -0.1401026E-04 Eh
 * total energy  :   -79.6213524 Eh     change       -0.2158349E-04 Eh
 * total energy  :   -79.6213736 Eh     change       -0.2121535E-04 Eh
 * total energy  :   -79.6213892 Eh     change       -0.1564104E-04 Eh
 * total energy  :   -79.6214012 Eh     change       -0.1195730E-04 Eh
 * total energy  :   -79.6214132 Eh     change       -0.1196396E-04 Eh
 * total energy  :   -79.6214172 Eh     change       -0.4048083E-05 Eh
   *** GEOMETRY OPTIMIZATION CONVERGED AFTER 44 ITERATIONS ***

 final structure:
================
38
 xtb: 6.5.1 (579679a)
C            6.39939487331635        0.72580131219604       -1.56231372890704
O            5.28547414487404        0.95000348074827       -0.71048893381309
C            4.21676885722067        0.13640116288437       -0.91034957235205
O            4.24347771312317       -0.72090282498207       -1.78680195678170
C            3.09449667378911        0.37349918026046       -0.01620572248000
N            2.03708949074446       -0.48723823907096       -0.24857325222106
C            0.97195351541973       -0.42897160187625        0.46118049254316
C           -0.15677570781440       -1.41431331617874        0.20166232110586
C           -0.43047635641691       -2.27457582988186        1.44156877210676
C            0.22830505042216       -2.31264797373702       -0.97601169491890
N           -1.38143186497709       -0.69700283922502       -0.20374491643694
C           -2.23305812035484       -0.05616966350204        0.61420342301678
O           -2.07161487238708        0.15639657605789        1.80601622467165
C           -3.43845837083557        0.40246725808908       -0.12833549257969
N           -3.64461898086831        0.28911524301244       -1.40615247959932
N           -4.87091875530655        0.83033361731800       -1.65584701175822
C           -5.33446190060496        1.23684041299221       -0.51326550525454
C           -6.63739769885707        1.88436382673534       -0.24560538616627
O           -4.47493692758108        0.99895449918370        0.48835400922520
N            0.82884709228437        0.48493430616029        1.48227685899464
C            1.78574328787200        1.40671573219361        1.81474534468383
O            1.58102089943798        2.19947155001468        2.73211762456061
C            3.05951084070136        1.36588343260014        0.99774552114618
O            3.96228985450111        2.18125284143814        1.26348506709694
H            6.77726646411106       -0.29489716472175       -1.44597002377892
H            7.17126590135363        1.43894730850223       -1.27506326852594
H            6.12428942708791        0.88065562320643       -2.61041821336044
H           -1.28428326815249       -2.92451977344863        1.25827231765781
H            0.44433922236883       -2.88980129835497        1.64737352121349
H           -0.63821903925953       -1.66038669988432        2.31484212260901
H           -0.57168915513041       -3.01989725380605       -1.18504584473960
H            0.41939023882862       -1.71098820324683       -1.86388611050479
H            1.13585563549866       -2.86319614109216       -0.73253673383801
H           -1.67892881510175       -0.82517319602227       -1.15947978183035
H           -6.48312992621480        2.86909470384313        0.19530093928675
H           -7.21127682415808        1.28499142744693        0.46081112028028
H           -7.19377325610391        1.98354866080386       -1.17405441944123
H           -0.03132934283632        0.50101086333285        2.01525536908970

          :  Hamiltonian                  GFN1-xTB          :
         :: total energy             -79.621417216720 Eh    ::
         :: gradient norm              0.000275199180 Eh/a0 ::
         :: HOMO-LUMO gap              1.577654739207 eV    ::
         :: SCC energy               -80.346791587073 Eh    ::
         :: -> Gsolv                  -0.124729355311 Eh    ::
         :: repulsion energy           0.748236030791 Eh    ::

    * Orbital Energies and Occupations

         #    Occupation            Energy/Eh            Energy/eV
      -------------------------------------------------------------
         1        2.0000           -0.8607220             -23.4214
       ...           ...                  ...                  ...
        52        2.0000           -0.4859559             -13.2235
        53        2.0000           -0.4794584             -13.0467
        54        2.0000           -0.4641885             -12.6312
        55        2.0000           -0.4609779             -12.5438
        56        2.0000           -0.4571845             -12.4406
        57        2.0000           -0.4529997             -12.3268
        58        2.0000           -0.4484700             -12.2035
        59        2.0000           -0.4432422             -12.0612
        60        2.0000           -0.4358695             -11.8606
        61        2.0000           -0.4348972             -11.8342
        62        2.0000           -0.4130942             -11.2409
        63        2.0000           -0.3764116             -10.2427
        64        2.0000           -0.3641962              -9.9103 (HOMO)
        65                         -0.3062184              -8.3326 (LUMO)
        66                         -0.2677085              -7.2847
        67                         -0.2544234              -6.9232
        68                         -0.2377083              -6.4684
        69                         -0.1951771              -5.3110
        70                         -0.1946407              -5.2964
        71                         -0.1410176              -3.8373
        72                         -0.1213264              -3.3015
        73                         -0.1198009              -3.2599
        74                         -0.1167026              -3.1756
        75                         -0.1067822              -2.9057
       ...                                ...                  ...
       124                          0.7564563              20.5842
      -------------------------------------------------------------
                  HL-Gap            0.0579777 Eh            1.5777 eV

Wiberg/Mayer (AO) data.
largest (>0.10) Wiberg bond orders for each atom

     #   Z sym  total        # sym  WBO       # sym  WBO       # sym  WBO
 ---------------------------------------------------------------------------
     1   6 C    3.899 --    26 H    0.987    27 H    0.980    25 H    0.980
                             2 O    0.926
     2   8 O    2.159 --     3 C    1.046     1 C    0.926     4 O    0.109
     3   6 C    3.850 --     4 O    1.573     5 C    1.116     2 O    1.046
     4   8 O    1.849 --     3 C    1.573     2 O    0.109
     5   6 C    3.914 --    23 C    1.271     6 N    1.152     3 C    1.116
                            24 O    0.129
     6   7 N    3.031 --     7 C    1.631     5 C    1.152
     7   6 C    3.934 --     6 N    1.631    20 N    1.103     8 C    0.968
     8   6 C    3.929 --    10 C    1.002     9 C    0.988     7 C    0.968
                            11 N    0.906
     9   6 C    3.990 --     8 C    0.988    29 H    0.985    28 H    0.985
                            30 H    0.979
    10   6 C    3.993 --     8 C    1.002    31 H    0.986    32 H    0.983
                            33 H    0.982
    11   7 N    3.356 --    12 C    1.277     8 C    0.906    34 H    0.897
                            13 O    0.181
    12   6 C    3.919 --    13 O    1.571    11 N    1.277    14 C    0.986
    13   8 O    1.913 --    12 C    1.571    11 N    0.181
    14   6 C    3.873 --    15 N    1.612    19 O    1.064    12 C    0.986
    15   7 N    3.014 --    14 C    1.612    16 N    1.197
    16   7 N    2.980 --    17 C    1.608    15 N    1.197
    17   6 C    3.872 --    16 N    1.608    19 O    1.083    18 C    1.031
    18   6 C    3.987 --    17 C    1.031    37 H    0.983    35 H    0.964
                            36 H    0.964
    19   8 O    2.330 --    17 C    1.083    14 C    1.064
    20   7 N    3.434 --    21 C    1.169     7 C    1.103    38 H    0.878
                            22 O    0.136
    21   6 C    3.881 --    22 O    1.574    20 N    1.169    23 C    0.968
    22   8 O    1.854 --    21 C    1.574    20 N    0.136
    23   6 C    3.943 --    24 O    1.519     5 C    1.271    21 C    0.968
    24   8 O    1.823 --    23 C    1.519     5 C    0.129
    25   1 H    1.014 --     1 C    0.980
    26   1 H    1.016 --     1 C    0.987
    27   1 H    1.014 --     1 C    0.980
    28   1 H    1.001 --     9 C    0.985
    29   1 H    1.003 --     9 C    0.985
    30   1 H    1.011 --     9 C    0.979
    31   1 H    1.001 --    10 C    0.986
    32   1 H    1.010 --    10 C    0.983
    33   1 H    1.012 --    10 C    0.982
    34   1 H    0.954 --    11 N    0.897
    35   1 H    0.997 --    18 C    0.964
    36   1 H    0.997 --    18 C    0.964
    37   1 H    0.999 --    18 C    0.983
    38   1 H    0.952 --    20 N    0.878
 ---------------------------------------------------------------------------

           -------------------------------------------------
          | TOTAL ENERGY              -79.621417216720 Eh   |
          | GRADIENT NORM               0.000275199180 Eh/α |
          | HOMO-LUMO GAP               1.577654739207 eV   |
           -------------------------------------------------

 * finished run on 2023/06/21 at 17:00:44.377
