   * xtb version 6.5.1 (579679a) compiled by 'ehlert@majestix' on 2022-07-11
          program call               : /lustre/hpc/kemi/ree/PhD/git/ReactivityQM/dep/xtb-6.5.1/bin/xtb --gfn 1 /lustre/hpc/kemi/ree/PhD/git/ReactivityQM/calculations/R01/reac02prodE03/conf19/R01_reac02prodE03_conf19_gfn1.xyz --opt --vfukui --chrg -1 --uhf 0 --alpb DMSO

   ID    Z sym.   atoms
    1    6 C      1, 3, 5, 6, 8-11, 14, 16
    2    8 O      2, 4, 15, 17
    3    7 N      7, 12, 13
    4    1 H      18-33

      * Solvation model:               ALPB
        Solvent                        DMSO
        Solvent mass                       7.8130E+01 g/mol
          :  Hamiltonian                  GFN1-xTB          :
 * total energy  :   -58.5297747 Eh     change       -0.4149570E-11 Eh
 * total energy  :   -58.5432495 Eh     change       -0.1347477E-01 Eh
 * total energy  :   -58.5469094 Eh     change       -0.3659867E-02 Eh
 * total energy  :   -58.5474887 Eh     change       -0.5793119E-03 Eh
 * total energy  :   -58.5478818 Eh     change       -0.3931469E-03 Eh
 * total energy  :   -58.5479851 Eh     change       -0.1032733E-03 Eh
 * total energy  :   -58.5480626 Eh     change       -0.7749120E-04 Eh
 * total energy  :   -58.5481329 Eh     change       -0.7028665E-04 Eh
 * total energy  :   -58.5482351 Eh     change       -0.1022200E-03 Eh
 * total energy  :   -58.5483901 Eh     change       -0.1549671E-03 Eh
 * total energy  :   -58.5511189 Eh     change       -0.2235646E-04 Eh
 * total energy  :   -58.5511355 Eh     change       -0.1662842E-04 Eh
 * total energy  :   -58.5511527 Eh     change       -0.1715994E-04 Eh
 * total energy  :   -58.5511604 Eh     change       -0.7773707E-05 Eh
 * total energy  :   -58.5511764 Eh     change       -0.1594305E-04 Eh
 * total energy  :   -58.5511856 Eh     change       -0.9202393E-05 Eh
 * total energy  :   -58.5511930 Eh     change       -0.7415346E-05 Eh
 * total energy  :   -58.5511981 Eh     change       -0.5081805E-05 Eh
 * total energy  :   -58.5511998 Eh     change       -0.1705003E-05 Eh
   *** GEOMETRY OPTIMIZATION CONVERGED AFTER 44 ITERATIONS ***

 final structure:
================
33
 xtb: 6.5.1 (579679a)
C            4.07812562080664        1.70277531381999        0.32075788669235
O            3.30886389844418        0.60067178656625       -0.15175102386000
C            1.96535157063013        0.71974935814107       -0.04752634025623
O            1.44690437068035        1.72677533864630        0.40065349014302
C            1.23244460663190       -0.58059761020112       -0.39464460145652
C            1.92282784602015       -1.34050720370851       -1.53327454239570
N           -0.13588345427751       -0.26644699698345       -0.79851096366158
C           -1.03235145044473       -0.15883431180266        0.10919896470024
C           -2.44094413977972        0.25601039265849       -0.29600459708864
C           -3.46640347455091       -0.79397129942596        0.15151638949276
C           -2.76164383513463        1.62437474840349        0.33260365397150
N           -2.49789175249503        0.33750829068561       -1.75336793099174
N           -0.81068149694074       -0.35563536160927        1.44012690760941
C            0.29774360999361       -1.19763995038448        1.86058860770268
O            0.21607301302953       -1.74320136709792        2.99793673601888
C            1.27156915803619       -1.31772264389052        0.91816096328402
O            2.41611574141804       -2.12303231878306        1.15452271030798
H            3.84144254178600        2.60618110654511       -0.24928524337226
H            3.87656417839007        1.88897254906428        1.38000826589798
H            5.12637288021279        1.44262423944190        0.18209650536549
H            1.35808279165950       -2.24551172213797       -1.75644276222889
H            2.93682814634479       -1.61707657981208       -1.24898432096637
H            1.95926166136169       -0.71993536555788       -2.42806912707744
H           -3.46463001077571       -0.90944172539943        1.23425583009832
H           -4.46451370925091       -0.48845050997838       -0.15981314805272
H           -3.23761096700622       -1.75501514766765       -0.30977190675121
H           -2.71336245392979        1.56710236416267        1.41949532183297
H           -3.76294435763209        1.94012305441027        0.04371298318260
H           -2.04606710350745        2.37011284178716       -0.01372144601787
H           -3.37998770313537        0.74655066585468       -2.02527698774833
H           -1.75759791256653        0.94993152784863       -2.08217040411074
H           -1.60409494279312       -0.39278684390412        2.05952822529594
H            2.32203912877593       -2.47365461969254        2.05139490443829

          :  Hamiltonian                  GFN1-xTB          :
         :: total energy             -58.551199788683 Eh    ::
         :: gradient norm              0.000259925053 Eh/a0 ::
         :: HOMO-LUMO gap              2.078917229848 eV    ::
         :: SCC energy               -59.094237087835 Eh    ::
         :: -> Gsolv                  -0.111217030273 Eh    ::
         :: repulsion energy           0.562572741989 Eh    ::

    * Orbital Energies and Occupations

         #    Occupation            Energy/Eh            Energy/eV
      -------------------------------------------------------------
         1        2.0000           -0.8078296             -21.9822
       ...           ...                  ...                  ...
        36        2.0000           -0.4797550             -13.0548
        37        2.0000           -0.4790074             -13.0345
        38        2.0000           -0.4735208             -12.8852
        39        2.0000           -0.4701923             -12.7946
        40        2.0000           -0.4606335             -12.5345
        41        2.0000           -0.4508881             -12.2693
        42        2.0000           -0.4472887             -12.1713
        43        2.0000           -0.4327631             -11.7761
        44        2.0000           -0.3913603             -10.6495
        45        2.0000           -0.3903178             -10.6211
        46        2.0000           -0.3834794             -10.4350
        47        2.0000           -0.3718767             -10.1193
        48        2.0000           -0.3074534              -8.3662 (HOMO)
        49                         -0.2310546              -6.2873 (LUMO)
        50                         -0.2109669              -5.7407
        51                         -0.1281199              -3.4863
        52                         -0.1257502              -3.4218
        53                         -0.1136376              -3.0922
        54                         -0.1068545              -2.9077
        55                         -0.0979551              -2.6655
        56                         -0.0902868              -2.4568
        57                         -0.0665030              -1.8096
        58                         -0.0643092              -1.7499
        59                         -0.0635598              -1.7296
       ...                                ...                  ...
       100                          0.7089233              19.2908
      -------------------------------------------------------------
                  HL-Gap            0.0763988 Eh            2.0789 eV

Wiberg/Mayer (AO) data.
largest (>0.10) Wiberg bond orders for each atom

     #   Z sym  total        # sym  WBO       # sym  WBO       # sym  WBO
 ---------------------------------------------------------------------------
     1   6 C    3.892 --    20 H    0.987    18 H    0.981    19 H    0.981
                             2 O    0.914
     2   8 O    2.168 --     3 C    1.062     1 C    0.914     4 O    0.114
     3   6 C    3.814 --     4 O    1.628     2 O    1.062     5 C    0.922
     4   8 O    1.890 --     3 C    1.628     2 O    0.114
     5   6 C    3.967 --     6 C    0.989     7 N    0.973    16 C    0.953
                             3 C    0.922
     6   6 C    3.997 --     5 C    0.989    23 H    0.988    21 H    0.987
                            22 H    0.985
     7   7 N    2.972 --     8 C    1.683     5 C    0.973    13 N    0.154
     8   6 C    3.945 --     7 N    1.683    13 N    1.175     9 C    0.971
     9   6 C    3.968 --    10 C    0.991    12 N    0.988    11 C    0.979
                             8 C    0.971
    10   6 C    3.996 --     9 C    0.991    26 H    0.986    25 H    0.985
                            24 H    0.983
    11   6 C    3.996 --    28 H    0.986    29 H    0.985    27 H    0.984
                             9 C    0.979
    12   7 N    2.955 --     9 C    0.988    30 H    0.953    31 H    0.944
    13   7 N    3.300 --     8 C    1.175    32 H    0.915    14 C    0.912
                             7 N    0.154
    14   6 C    3.920 --    16 C    1.508    15 O    1.362    13 N    0.912
    15   8 O    1.705 --    14 C    1.362    16 C    0.167
    16   6 C    3.791 --    14 C    1.508     5 C    0.953    17 O    0.942
                            15 O    0.167
    17   8 O    1.914 --    16 C    0.942    33 H    0.859
    18   1 H    1.012 --     1 C    0.981
    19   1 H    1.011 --     1 C    0.981
    20   1 H    1.014 --     1 C    0.987
    21   1 H    1.013 --     6 C    0.987
    22   1 H    1.018 --     6 C    0.985
    23   1 H    1.011 --     6 C    0.988
    24   1 H    1.005 --    10 C    0.983
    25   1 H    1.004 --    10 C    0.985
    26   1 H    1.010 --    10 C    0.986
    27   1 H    1.005 --    11 C    0.984
    28   1 H    1.005 --    11 C    0.986
    29   1 H    1.007 --    11 C    0.985
    30   1 H    0.967 --    12 N    0.953
    31   1 H    0.981 --    12 N    0.944
    32   1 H    0.968 --    13 N    0.915
    33   1 H    0.892 --    17 O    0.859
 ---------------------------------------------------------------------------

           -------------------------------------------------
          | TOTAL ENERGY              -58.551199788683 Eh   |
          | GRADIENT NORM               0.000259925053 Eh/α |
          | HOMO-LUMO GAP               2.078917229848 eV   |
           -------------------------------------------------

 * finished run on 2023/06/20 at 14:58:45.254
