                         Program Version 5.0.1 -  RELEASE  -
|  1> # ORCA input file
|  2> ! SP r2SCAN-3c CPCM
|  3>
|  4> %maxcore 1875.0
|  5> %pal nprocs 4 end
|  6> %cpcm smd true SMDsolvent "DMSO" end
|  7>
|  8> *xyz 0 1
|  9> C       3.212408   -0.002676    0.953113
| 10> O       1.820809    0.094335    0.625317
| 11> C       1.420390   -0.545088   -0.464242
| 12> O       2.140363   -1.192392   -1.185656
| 13> C      -0.033405   -0.381744   -0.702784
| 14> N      -0.719067   -0.889810   -1.683186
| 15> N      -2.003622   -0.487416   -1.512813
| 16> C      -2.027813    0.243121   -0.437307
| 17> C      -3.195893    0.913188    0.172694
| 18> O      -0.815108    0.346659    0.119862
| 19> H       3.481685   -1.046580    1.126307
| 20> H       3.816409    0.398491    0.136480
| 21> H       3.356859    0.583306    1.857945
| 22> H      -4.066591    0.784954   -0.465696
| 23> H      -3.398889    0.484787    1.154390
| 24> H      -2.988535    1.974427    0.305579
| 25> **                         ****END OF INPUT****

CARTESIAN COORDINATES (ANGSTROEM)
---------------------------------
  C      3.212408   -0.002676    0.953113
  O      1.820809    0.094335    0.625317
  C      1.420390   -0.545088   -0.464242
  O      2.140363   -1.192392   -1.185656
  C     -0.033405   -0.381744   -0.702784
  N     -0.719067   -0.889810   -1.683186
  N     -2.003622   -0.487416   -1.512813
  C     -2.027813    0.243121   -0.437307
  C     -3.195893    0.913188    0.172694
  O     -0.815108    0.346659    0.119862
  H      3.481685   -1.046580    1.126307
  H      3.816409    0.398491    0.136480
  H      3.356859    0.583306    1.857945
  H     -4.066591    0.784954   -0.465696
  H     -3.398889    0.484787    1.154390
  H     -2.988535    1.974427    0.305579

 Total Charge           Charge          ....    0
 Multiplicity           Mult            ....    1
 Number of Electrons    NEL             ....   74
 Basis Dimension        Dim             ....  245

ORBITAL ENERGIES
----------------

  NO   OCC          E(Eh)            E(eV)
   0   2.0000     -19.067530      -518.8539
   1   2.0000     -19.018638      -517.5234
   2   2.0000     -18.956148      -515.8230
   3   2.0000     -14.210499      -386.6873
   4   2.0000     -14.200203      -386.4072
   5   2.0000     -10.186801      -277.1969
   6   2.0000     -10.149981      -276.1950
   7   2.0000     -10.149482      -276.1815
   8   2.0000     -10.083859      -274.3958
   9   2.0000     -10.046086      -273.3679
  10   2.0000      -1.159075       -31.5400
  11   2.0000      -1.094032       -29.7701
  12   2.0000      -1.004793       -27.3418
  13   2.0000      -0.978719       -26.6323
  14   2.0000      -0.834841       -22.7172
  15   2.0000      -0.729951       -19.8630
  16   2.0000      -0.710818       -19.3423
  17   2.0000      -0.648735       -17.6530
  18   2.0000      -0.603245       -16.4151
  19   2.0000      -0.565591       -15.3905
  20   2.0000      -0.523062       -14.2332
  21   2.0000      -0.499556       -13.5936
  22   2.0000      -0.461312       -12.5529
  23   2.0000      -0.459481       -12.5031
  24   2.0000      -0.454633       -12.3712
  25   2.0000      -0.407146       -11.0790
  26   2.0000      -0.402273       -10.9464
  27   2.0000      -0.395819       -10.7708
  28   2.0000      -0.381807       -10.3895
  29   2.0000      -0.374756       -10.1976
  30   2.0000      -0.347289        -9.4502
  31   2.0000      -0.337451        -9.1825
  32   2.0000      -0.317326        -8.6349
  33   2.0000      -0.290498        -7.9049
  34   2.0000      -0.273198        -7.4341
  35   2.0000      -0.266095        -7.2408
  36   2.0000      -0.264525        -7.1981
  37   0.0000      -0.097258        -2.6465
  38   0.0000      -0.023197        -0.6312
  39   0.0000       0.046746         1.2720
  40   0.0000       0.056664         1.5419
  41   0.0000       0.078308         2.1309

MULLIKEN ATOMIC CHARGES
-----------------------
   0 C :   -0.300836
   1 O :   -0.179576
   2 C :    0.039863
   3 O :   -0.388789
   4 C :    0.392560
   5 N :   -0.187067
   6 N :   -0.256034
   7 C :    0.387702
   8 C :   -0.634455
   9 O :   -0.032204
  10 H :    0.182684
  11 H :    0.182203
  12 H :    0.183234
  13 H :    0.205769
  14 H :    0.204205
  15 H :    0.200741
Sum of atomic charges:    0.0000000

LOEWDIN ATOMIC CHARGES
----------------------
   0 C :   -0.028178
   1 O :   -0.558448
   2 C :    0.404592
   3 O :   -0.389028
   4 C :    0.410516
   5 N :   -0.328466
   6 N :   -0.355219
   7 C :    0.383508
   8 C :   -0.316319
   9 O :   -0.363937
  10 H :    0.186565
  11 H :    0.186540
  12 H :    0.190416
  13 H :    0.191648
  14 H :    0.193683
  15 H :    0.192125

  Mayer bond orders larger than 0.100000
B(  0-C ,  1-O ) :   0.8305 B(  0-C , 10-H ) :   0.9520 B(  0-C , 11-H ) :   0.9524
B(  0-C , 12-H ) :   0.9597 B(  1-O ,  2-C ) :   1.1296 B(  2-C ,  3-O ) :   1.8962
B(  2-C ,  4-C ) :   0.9309 B(  4-C ,  5-N ) :   1.6397 B(  4-C ,  9-O ) :   1.0843
B(  5-N ,  6-N ) :   1.2978 B(  6-N ,  7-C ) :   1.6109 B(  7-C ,  8-C ) :   0.8435
B(  7-C ,  9-O ) :   1.0939 B(  8-C , 13-H ) :   0.9871 B(  8-C , 14-H ) :   0.9357
B(  8-C , 15-H ) :   0.9447

Dispersion correction           -0.004515560
FINAL SINGLE POINT ENERGY      -529.218346841893

DIPOLE MOMENT
-------------
                                X             Y             Z
Electronic contribution:     -0.16553      -2.35901      -3.59806
Nuclear contribution   :      0.02401       3.97945       5.97297
                        -----------------------------------------
Total Dipole Moment    :     -0.14152       1.62044       2.37491
                        -----------------------------------------
Magnitude (a.u.)       :      2.87855
Magnitude (Debye)      :      7.31669

Rotational constants in cm-1:     0.116347     0.027160     0.022203
Rotational constants in MHz :  3487.994269   814.230288   665.641991

                             ****ORCA TERMINATED NORMALLY****
TOTAL RUN TIME: 0 days 0 hours 0 minutes 31 seconds 985 msec
