   * xtb version 6.5.1 (579679a) compiled by 'ehlert@majestix' on 2022-07-11
          program call               : /lustre/hpc/kemi/ree/PhD/git/ReactivityQM/dep/xtb-6.5.1/bin/xtb --gfn 1 /lustre/hpc/kemi/ree/PhD/git/ReactivityQM/calculations/R01/reac01/conf03/R01_reac01_conf03_gfn1.xyz --opt --vfukui --chrg 0 --uhf 0 --alpb DMSO

   ID    Z sym.   atoms
    1    6 C      1, 3, 5, 8, 9
    2    8 O      2, 4, 10
    3    7 N      6, 7
    4    1 H      11-16

      * Solvation model:               ALPB
        Solvent                        DMSO
        Solvent mass                       7.8130E+01 g/mol
          :  Hamiltonian                  GFN1-xTB          :
 * total energy  :   -34.2879236 Eh     change       -0.2430056E-11 Eh
 * total energy  :   -34.2933295 Eh     change       -0.5405914E-02 Eh
 * total energy  :   -34.2953668 Eh     change       -0.2037295E-02 Eh
 * total energy  :   -34.2959071 Eh     change       -0.5402441E-03 Eh
 * total energy  :   -34.2962980 Eh     change       -0.3908899E-03 Eh
 * total energy  :   -34.2965032 Eh     change       -0.2052482E-03 Eh
 * total energy  :   -34.2966402 Eh     change       -0.1369870E-03 Eh
 * total energy  :   -34.2967294 Eh     change       -0.8924355E-04 Eh
 * total energy  :   -34.2967714 Eh     change       -0.4195229E-04 Eh
 * total energy  :   -34.2967913 Eh     change       -0.1990669E-04 Eh
 * total energy  :   -34.2967954 Eh     change       -0.4072814E-05 Eh
   *** GEOMETRY OPTIMIZATION CONVERGED AFTER 11 ITERATIONS ***

 final structure:
================
16
 xtb: 6.5.1 (579679a)
C            3.21240778978468       -0.00267572728614        0.95311262836847
O            1.82080909583131        0.09433533134145        0.62531713850486
C            1.42038953737454       -0.54508836582216       -0.46424182035979
O            2.14036314993371       -1.19239174576107       -1.18565606694956
C           -0.03340472636715       -0.38174434016517       -0.70278363809855
N           -0.71906657768490       -0.88980952546524       -1.68318628832318
N           -2.00362236109645       -0.48741569420259       -1.51281282994831
C           -2.02781319866941        0.24312126360348       -0.43730714262119
C           -3.19589297611639        0.91318819521225        0.17269360092636
O           -0.81510753079022        0.34665902705876        0.11986177736752
H            3.48168498268919       -1.04658029845535        1.12630673895785
H            3.81640858993933        0.39849109466762        0.13648030502156
H            3.35685850334110        0.58330552957565        1.85794497369989
H           -4.06659148327894        0.78495373263519       -0.46569626920356
H           -3.39888939254674        0.48478651381124        1.15438981471417
H           -2.98853540234377        1.97442700925206        0.30557907794334

          :  Hamiltonian                  GFN1-xTB          :
         :: total energy             -34.296795368862 Eh    ::
         :: gradient norm              0.000891029509 Eh/a0 ::
         :: HOMO-LUMO gap              3.728210185416 eV    ::
         :: SCC energy               -34.589931396463 Eh    ::
         :: -> Gsolv                  -0.021534586233 Eh    ::
         :: repulsion energy           0.299094377456 Eh    ::

    * Orbital Energies and Occupations

         #    Occupation            Energy/Eh            Energy/eV
      -------------------------------------------------------------
         1        2.0000           -0.8707989             -23.6956
       ...           ...                  ...                  ...
        15        2.0000           -0.5965918             -16.2341
        16        2.0000           -0.5707133             -15.5299
        17        2.0000           -0.5647365             -15.3673
        18        2.0000           -0.5496065             -14.9556
        19        2.0000           -0.5484572             -14.9243
        20        2.0000           -0.5371919             -14.6177
        21        2.0000           -0.5203800             -14.1603
        22        2.0000           -0.5121226             -13.9356
        23        2.0000           -0.5037705             -13.7083
        24        2.0000           -0.4942997             -13.4506
        25        2.0000           -0.4837445             -13.1634
        26        2.0000           -0.4619826             -12.5712
        27        2.0000           -0.4603901             -12.5279 (HOMO)
        28                         -0.3233809              -8.7996 (LUMO)
        29                         -0.2623929              -7.1401
        30                         -0.2088228              -5.6824
        31                         -0.1450595              -3.9473
        32                         -0.1402404              -3.8161
        33                         -0.0770530              -2.0967
        34                         -0.0767045              -2.0872
        35                         -0.0765422              -2.0828
        36                         -0.0756100              -2.0575
        37                          0.0031520               0.0858
        38                          0.0394534               1.0736
       ...                                ...                  ...
        52                          0.7372204              20.0608
      -------------------------------------------------------------
                  HL-Gap            0.1370092 Eh            3.7282 eV

Wiberg/Mayer (AO) data.
largest (>0.10) Wiberg bond orders for each atom

     #   Z sym  total        # sym  WBO       # sym  WBO       # sym  WBO
 ---------------------------------------------------------------------------
     1   6 C    3.861 --    13 H    0.985    12 H    0.979    11 H    0.979
                             2 O    0.887
     2   8 O    2.217 --     3 C    1.132     1 C    0.887     4 O    0.142
     3   6 C    3.866 --     4 O    1.660     2 O    1.132     5 C    0.992
     4   8 O    1.931 --     3 C    1.660     2 O    0.142
     5   6 C    3.880 --     6 N    1.607    10 O    1.056     3 C    0.992
     6   7 N    3.005 --     5 C    1.607     7 N    1.217
     7   7 N    2.981 --     8 C    1.590     6 N    1.217
     8   6 C    3.868 --     7 N    1.590    10 O    1.089     9 C    1.033
     9   6 C    3.985 --     8 C    1.033    14 H    0.982    16 H    0.964
                            15 H    0.960
    10   8 O    2.329 --     8 C    1.089     5 C    1.056
    11   1 H    1.004 --     1 C    0.979
    12   1 H    1.005 --     1 C    0.979
    13   1 H    1.009 --     1 C    0.985
    14   1 H    0.998 --     9 C    0.982
    15   1 H    0.996 --     9 C    0.960
    16   1 H    0.996 --     9 C    0.964
 ---------------------------------------------------------------------------

           -------------------------------------------------
          | TOTAL ENERGY              -34.296795368862 Eh   |
          | GRADIENT NORM               0.000891029509 Eh/α |
          | HOMO-LUMO GAP               3.728210185416 eV   |
           -------------------------------------------------

 * finished run on 2023/06/20 at 14:51:55.972
