   * xtb version 6.5.1 (579679a) compiled by 'ehlert@majestix' on 2022-07-11
          program call               : /lustre/hpc/kemi/ree/PhD/git/ReactivityQM/dep/xtb-6.5.1/bin/xtb --gfn 1 /lustre/hpc/kemi/ree/PhD/git/ReactivityQM/calculations/RaltegravirCLI/reac02/conf07/RaltegravirCLI_reac02_conf07_gfn1.xyz --opt --vfukui --chrg 0 --uhf 0 --alpb DMSO

   ID    Z sym.   atoms
    1    6 C      1, 3-6, 9, 10, 13-17, 19-21, 23
    2    7 N      2, 7, 8, 12
    3    8 O      11, 22, 24
    4    9 F      18
    5    1 H      25-43

      * Solvation model:               ALPB
        Solvent                        DMSO
        Solvent mass                       7.8130E+01 g/mol
          :  Hamiltonian                  GFN1-xTB          :
 * total energy  :   -76.1647864 Eh     change       -0.7574386E-11 Eh
 * total energy  :   -76.1720436 Eh     change       -0.7257208E-02 Eh
 * total energy  :   -76.1739506 Eh     change       -0.1906973E-02 Eh
 * total energy  :   -76.1743148 Eh     change       -0.3641313E-03 Eh
 * total energy  :   -76.1745480 Eh     change       -0.2332362E-03 Eh
 * total energy  :   -76.1746375 Eh     change       -0.8951103E-04 Eh
 * total energy  :   -76.1747044 Eh     change       -0.6690890E-04 Eh
 * total energy  :   -76.1747389 Eh     change       -0.3445692E-04 Eh
 * total energy  :   -76.1747671 Eh     change       -0.2824718E-04 Eh
 * total energy  :   -76.1747892 Eh     change       -0.2211115E-04 Eh
 * total energy  :   -76.1748889 Eh     change       -0.2103291E-04 Eh
 * total energy  :   -76.1749026 Eh     change       -0.1363404E-04 Eh
 * total energy  :   -76.1749131 Eh     change       -0.1049962E-04 Eh
 * total energy  :   -76.1749250 Eh     change       -0.1189653E-04 Eh
 * total energy  :   -76.1749374 Eh     change       -0.1239854E-04 Eh
 * total energy  :   -76.1749463 Eh     change       -0.8918001E-05 Eh
 * total energy  :   -76.1749517 Eh     change       -0.5423747E-05 Eh
 * total energy  :   -76.1749569 Eh     change       -0.5154464E-05 Eh
 * total energy  :   -76.1749604 Eh     change       -0.3517516E-05 Eh
   *** GEOMETRY OPTIMIZATION CONVERGED AFTER 22 ITERATIONS ***

 final structure:
================
43
 xtb: 6.5.1 (579679a)
C           -3.92573915785912       -2.07386396053730        0.48864491742869
N           -2.68333038027009       -1.30568334825209        0.57260013537611
C           -2.43193678244279       -0.15813489337927       -0.14280193048907
C           -3.42858877526905        0.48215342558635       -1.11981106987175
C           -4.00647321458259       -0.50320576533009       -2.14437623691322
C           -4.53800309049559        1.20819383061253       -0.34422819601040
N           -2.71299319437759        1.49922955583142       -1.88333394937583
N           -1.31409390388849        0.48373569563825       -0.01560263882067
C           -0.31424692910516        0.06209999699607        0.81395594044913
C            0.88861374357386        0.96143265980400        0.81584441708776
O            0.89390839191645        2.02182246230505        0.20131522198467
N            1.94324571260243        0.53841377401087        1.53961140888107
C            3.17586081524133        1.31654984128111        1.59251945650447
C            4.16163036096102        0.84874174159970        0.54236246472304
C            5.32720911089176        0.18472223194107        0.91474341692514
C            6.23301933705120       -0.24837922715650       -0.04494325285179
C            5.94202200227530       -0.00815299279927       -1.37485644119325
F            6.81162083261614       -0.42425767403532       -2.31101785929408
C            4.79255801914214        0.64649564369991       -1.78086004031594
C            3.90181817213745        1.07639967028795       -0.80858133872407
C           -0.49350517598711       -1.08437601016646        1.53039540501442
O            0.41501572290902       -1.61092145860274        2.37841710682561
C           -1.72821958743410       -1.83665652574696        1.42087557015515
O           -1.90383535158350       -2.87630568405442        2.05478243428770
H           -4.78249982967439       -1.40989431475672        0.44337936933684
H           -3.90188181927069       -2.72089727009710       -0.38742704151317
H           -3.99896495354812       -2.69070463385900        1.38405218342696
H           -4.36688121910727        0.06641320779007       -3.00114161668017
H           -3.23743391858065       -1.19427350149756       -2.48655352845618
H           -4.84229043568457       -1.07001297106076       -1.74303080880174
H           -5.14825535646309        1.77146493227170       -1.04944961785553
H           -5.17875751929285        0.51282076030707        0.19260636823270
H           -4.09732616959921        1.90101927559948        0.37209433048314
H           -2.27503401928953        2.14773758622874       -1.23482146795845
H           -1.96688211936613        1.04981408791292       -2.40155313296951
H            1.95065629217791       -0.36646890587654        1.97853289009604
H            3.60247525150890        1.20835166478754        2.59247376026717
H            2.91655086274618        2.36743529665673        1.42535887583979
H            5.53681734841325        0.00544880015785        1.96263767910848
H            7.14382428548334       -0.76233541359461        0.23273053464992
H            4.60397932717206        0.81603820954791       -2.83301217151104
H            2.99679621470438        1.59636802737100       -1.10154772112324
H            0.03955109964684       -2.42838082742366        2.75901717364265

          :  Hamiltonian                  GFN1-xTB          :
         :: total energy             -76.174960386694 Eh    ::
         :: gradient norm              0.000254274189 Eh/a0 ::
         :: HOMO-LUMO gap              2.728094607492 eV    ::
         :: SCC energy               -77.019700283715 Eh    ::
         :: -> Gsolv                  -0.045595813103 Eh    ::
         :: repulsion energy           0.872009715566 Eh    ::

    * Orbital Energies and Occupations

         #    Occupation            Energy/Eh            Energy/eV
      -------------------------------------------------------------
         1        2.0000           -0.8628212             -23.4786
       ...           ...                  ...                  ...
        52        2.0000           -0.4952886             -13.4775
        53        2.0000           -0.4874754             -13.2649
        54        2.0000           -0.4837356             -13.1631
        55        2.0000           -0.4720444             -12.8450
        56        2.0000           -0.4672542             -12.7146
        57        2.0000           -0.4645840             -12.6420
        58        2.0000           -0.4500881             -12.2475
        59        2.0000           -0.4459191             -12.1341
        60        2.0000           -0.4380535             -11.9200
        61        2.0000           -0.4334872             -11.7958
        62        2.0000           -0.4317891             -11.7496
        63        2.0000           -0.4195373             -11.4162
        64        2.0000           -0.4102138             -11.1625 (HOMO)
        65                         -0.3099582              -8.4344 (LUMO)
        66                         -0.2724462              -7.4136
        67                         -0.2719717              -7.4007
        68                         -0.2654696              -7.2238
        69                         -0.2251472              -6.1266
        70                         -0.1472775              -4.0076
        71                         -0.1451521              -3.9498
        72                         -0.1439757              -3.9178
        73                         -0.1265613              -3.4439
        74                         -0.1194063              -3.2492
        75                         -0.1169212              -3.1816
       ...                                ...                  ...
       134                          0.7184766              19.5507
      -------------------------------------------------------------
                  HL-Gap            0.1002556 Eh            2.7281 eV

Wiberg/Mayer (AO) data.
largest (>0.10) Wiberg bond orders for each atom

     #   Z sym  total        # sym  WBO       # sym  WBO       # sym  WBO
 ---------------------------------------------------------------------------
     1   6 C    3.925 --    25 H    0.977    26 H    0.976    27 H    0.973
                             2 N    0.931
     2   7 N    3.507 --     3 C    1.163    23 C    1.134     1 C    0.931
                            24 O    0.133
     3   6 C    3.918 --     8 N    1.570     2 N    1.163     4 C    0.963
     4   6 C    3.969 --     7 N    0.997     5 C    0.991     6 C    0.983
                             3 C    0.963
     5   6 C    3.994 --     4 C    0.991    29 H    0.986    28 H    0.983
                            30 H    0.982
     6   6 C    3.994 --    33 H    0.985     4 C    0.983    31 H    0.983
                            32 H    0.979
     7   7 N    2.960 --     4 C    0.997    35 H    0.945    34 H    0.940
     8   7 N    3.042 --     3 C    1.570     9 C    1.196
     9   6 C    3.964 --    21 C    1.508     8 N    1.196    10 C    0.990
    10   6 C    3.907 --    11 O    1.571    12 N    1.265     9 C    0.990
    11   8 O    1.879 --    10 C    1.571    12 N    0.171
    12   7 N    3.346 --    10 C    1.265    13 C    0.943    36 H    0.887
                            11 O    0.171
    13   6 C    3.949 --    14 C    0.994    37 H    0.977    38 H    0.967
                            12 N    0.943
    14   6 C    3.988 --    15 C    1.424    20 C    1.413    13 C    0.994
    15   6 C    3.994 --    16 C    1.438    14 C    1.424    39 H    0.971
                            19 C    0.109
    16   6 C    3.991 --    15 C    1.438    17 C    1.405    40 H    0.969
                            20 C    0.112
    17   6 C    3.860 --    16 C    1.405    19 C    1.397    18 F    0.923
    18   9 F    1.051 --    17 C    0.923
    19   6 C    3.992 --    20 C    1.449    17 C    1.397    41 H    0.970
                            15 C    0.109
    20   6 C    3.992 --    19 C    1.449    14 C    1.413    42 H    0.969
                            16 C    0.112
    21   6 C    3.917 --     9 C    1.508    23 C    1.093    22 O    1.070
    22   8 O    2.063 --    21 C    1.070    43 H    0.800
    23   6 C    3.916 --    24 O    1.537     2 N    1.134    21 C    1.093
    24   8 O    1.889 --    23 C    1.537     2 N    0.133
    25   1 H    1.008 --     1 C    0.977
    26   1 H    1.002 --     1 C    0.976
    27   1 H    1.007 --     1 C    0.973
    28   1 H    1.007 --     5 C    0.983
    29   1 H    1.001 --     5 C    0.986
    30   1 H    1.004 --     5 C    0.982
    31   1 H    1.005 --     6 C    0.983
    32   1 H    1.005 --     6 C    0.979
    33   1 H    1.002 --     6 C    0.985
    34   1 H    0.977 --     7 N    0.940
    35   1 H    0.968 --     7 N    0.945
    36   1 H    0.945 --    12 N    0.887
    37   1 H    1.003 --    13 C    0.977
    38   1 H    1.011 --    13 C    0.967
    39   1 H    1.000 --    15 C    0.971
    40   1 H    0.998 --    16 C    0.969
    41   1 H    0.999 --    19 C    0.970
    42   1 H    1.009 --    20 C    0.969
    43   1 H    0.846 --    22 O    0.800
 ---------------------------------------------------------------------------

           -------------------------------------------------
          | TOTAL ENERGY              -76.174960386694 Eh   |
          | GRADIENT NORM               0.000254274189 Eh/α |
          | HOMO-LUMO GAP               2.728094607492 eV   |
           -------------------------------------------------

 * finished run on 2023/06/20 at 14:51:41.984
