   * xtb version 6.5.1 (579679a) compiled by 'ehlert@majestix' on 2022-07-11
          program call               : /lustre/hpc/kemi/ree/PhD/git/ReactivityQM/dep/xtb-6.5.1/bin/xtb --gfn 1 /lustre/hpc/kemi/ree/PhD/git/ReactivityQM/calculations/R02oxygendeprot/reac01prodN03/conf16/R02oxygendeprot_reac01prodN03_conf16_gfn1.xyz --opt --vfukui --chrg 0 --uhf 0 --alpb DMSO

   ID    Z sym.   atoms
    1    6 C      1, 3, 5, 6, 8-11, 13, 15, 18, 19, 22, 24
    2    8 O      2, 4, 14, 20, 23, 25
    3    7 N      7, 12, 16, 17, 21
    4    1 H      26-42

      * Solvation model:               ALPB
        Solvent                        DMSO
        Solvent mass                       7.8130E+01 g/mol
          :  Hamiltonian                  GFN1-xTB          :
 * total energy  :   -82.9840515 Eh     change       -0.9649170E-11 Eh
 * total energy  :   -82.9953059 Eh     change       -0.1125437E-01 Eh
 * total energy  :   -82.9997885 Eh     change       -0.4482676E-02 Eh
 * total energy  :   -83.0010322 Eh     change       -0.1243668E-02 Eh
 * total energy  :   -83.0021896 Eh     change       -0.1157360E-02 Eh
 * total energy  :   -83.0030207 Eh     change       -0.8311137E-03 Eh
 * total energy  :   -83.0036767 Eh     change       -0.6560732E-03 Eh
 * total energy  :   -83.0040809 Eh     change       -0.4041840E-03 Eh
 * total energy  :   -83.0043124 Eh     change       -0.2314531E-03 Eh
 * total energy  :   -83.0044870 Eh     change       -0.1746240E-03 Eh
 * total energy  :   -83.0089642 Eh     change       -0.9297347E-05 Eh
 * total energy  :   -83.0089744 Eh     change       -0.1014917E-04 Eh
 * total energy  :   -83.0089708 Eh     change        0.3567253E-05 Eh
 * total energy  :   -83.0089871 Eh     change       -0.1630561E-04 Eh
 * total energy  :   -83.0089931 Eh     change       -0.6005188E-05 Eh
 * total energy  :   -83.0090019 Eh     change       -0.8764275E-05 Eh
 * total energy  :   -83.0089932 Eh     change        0.8705501E-05 Eh
 * total energy  :   -83.0090101 Eh     change       -0.1694549E-04 Eh
 * total energy  :   -83.0090146 Eh     change       -0.4472679E-05 Eh
   *** GEOMETRY OPTIMIZATION CONVERGED AFTER 106 ITERATIONS ***

 final structure:
================
42
 xtb: 6.5.1 (579679a)
C           -2.69150264093028        1.79385692310530       -1.93769010779876
O           -2.57211465478956        0.50337760247889       -1.31829532818073
C           -3.43283568320471        0.13804985304758       -0.39563922839552
O           -4.42089716615615        0.73376539070531       -0.06368044718732
C           -2.99238781459472       -1.20532574589797        0.26489623133253
C           -4.11826442062760       -1.72248410017882        1.15982062083957
N           -1.85111877928968       -0.83649480153393        1.07855108414492
C           -0.67052834946391       -0.98010449533598        0.64363547904316
C            0.51208323124937       -0.58177418055786        1.50371155584697
C            1.14304408634987       -1.84908372820599        2.08796376606532
C            0.06855834804247        0.37464276003980        2.61321819380877
N            1.51407921229191        0.06240961609716        0.65222684758537
C            1.21414907907553        1.14857225810194       -0.09680128329524
O            0.08680840832277        1.58443190007629       -0.25989669943965
C            2.40576413517915        1.74974125790286       -0.73982765765946
N            2.44965935236129        2.76203835877374       -1.54928207346114
N            3.75858717428033        2.95044583016102       -1.87336395581269
C            4.43536054863497        2.04220599915724       -1.24102900692788
C            5.89715725438731        1.82073779570445       -1.25922487395260
O            3.63877666533216        1.24942258602499       -0.50614265771085
N           -0.34932625246220       -1.55310375247888       -0.57870543139804
C           -1.24962912827254       -2.14625038397264       -1.40980178931525
O           -0.93502787104747       -2.64495917131285       -2.46712950111045
C           -2.68490770658264       -2.16248920687560       -0.86622303086788
O           -3.51938851688102       -2.88685978615583       -1.34540238509352
H           -3.47662771555395        2.37851765238253       -1.45464028620137
H           -1.72576599185080        2.28966490893661       -1.83084492310681
H           -2.92524149109705        1.64851371203353       -2.99314163840835
H           -3.78718806043880       -2.61656683860494        1.68297585564786
H           -4.38178262739804       -0.95770458008318        1.88738376528195
H           -4.99003464858424       -1.96090034943509        0.55278156415415
H            1.46685794765826       -2.51286057128840        1.28847501737887
H            2.00396037224210       -1.58390417378295        2.69828766061743
H            0.41632661519392       -2.36981706406309        2.70938366035462
H           -0.40593673397932        1.25519940306786        2.18192364126381
H           -0.64708998515999       -0.13063030187391        3.25958398858666
H            0.93165396296963        0.68001713389083        3.20030359769543
H            2.48006904133325       -0.16820398266933        0.81007863950768
H            6.37735113754738        2.58378260583890       -1.86720861911679
H            6.28999062804087        1.85743924128265       -0.24362712702742
H            6.11735836983658        0.83463837986030       -1.66804878357873
H            0.62000066803483       -1.57195595436354       -0.85723933410405

          :  Hamiltonian                  GFN1-xTB          :
         :: total energy             -83.009014574261 Eh    ::
         :: gradient norm              0.000727819428 Eh/a0 ::
         :: HOMO-LUMO gap              2.438726707575 eV    ::
         :: SCC energy               -83.796364320242 Eh    ::
         :: -> Gsolv                  -0.060779655061 Eh    ::
         :: repulsion energy           0.815379422795 Eh    ::

    * Orbital Energies and Occupations

         #    Occupation            Energy/Eh            Energy/eV
      -------------------------------------------------------------
         1        2.0000           -0.8672291             -23.5985
       ...           ...                  ...                  ...
        55        2.0000           -0.5102471             -13.8845
        56        2.0000           -0.5069970             -13.7961
        57        2.0000           -0.5054095             -13.7529
        58        2.0000           -0.5022492             -13.6669
        59        2.0000           -0.4949030             -13.4670
        60        2.0000           -0.4825701             -13.1314
        61        2.0000           -0.4731078             -12.8739
        62        2.0000           -0.4686392             -12.7523
        63        2.0000           -0.4622430             -12.5783
        64        2.0000           -0.4568979             -12.4328
        65        2.0000           -0.4543301             -12.3630
        66        2.0000           -0.4497217             -12.2375
        67        2.0000           -0.4390495             -11.9471 (HOMO)
        68                         -0.3494280              -9.5084 (LUMO)
        69                         -0.3150105              -8.5719
        70                         -0.2954511              -8.0396
        71                         -0.2665944              -7.2544
        72                         -0.2580491              -7.0219
        73                         -0.2253437              -6.1319
        74                         -0.2022933              -5.5047
        75                         -0.1418475              -3.8599
        76                         -0.1408579              -3.8329
        77                         -0.1356972              -3.6925
        78                         -0.1258568              -3.4247
       ...                                ...                  ...
       134                          0.7606171              20.6974
      -------------------------------------------------------------
                  HL-Gap            0.0896216 Eh            2.4387 eV

Wiberg/Mayer (AO) data.
largest (>0.10) Wiberg bond orders for each atom

     #   Z sym  total        # sym  WBO       # sym  WBO       # sym  WBO
 ---------------------------------------------------------------------------
     1   6 C    3.852 --    26 H    0.981    28 H    0.981    27 H    0.977
                             2 O    0.873
     2   8 O    2.226 --     3 C    1.162     1 C    0.873     4 O    0.141
     3   6 C    3.842 --     4 O    1.698     2 O    1.162     5 C    0.858
     4   8 O    1.983 --     3 C    1.698     2 O    0.141
     5   6 C    3.964 --     6 C    0.983     7 N    0.972    24 C    0.964
                             3 C    0.858
     6   6 C    3.985 --    29 H    0.985    31 H    0.983    30 H    0.983
                             5 C    0.983
     7   7 N    3.024 --     8 C    1.755     5 C    0.972
     8   6 C    3.928 --     7 N    1.755    21 N    1.069     9 C    0.972
     9   6 C    3.936 --    11 C    0.990    10 C    0.983     8 C    0.972
                            12 N    0.926
    10   6 C    3.988 --    32 H    0.984    34 H    0.983     9 C    0.983
                            33 H    0.981
    11   6 C    3.988 --     9 C    0.990    37 H    0.985    36 H    0.983
                            35 H    0.981
    12   7 N    3.338 --    13 C    1.244     9 C    0.926    38 H    0.889
                            14 O    0.171
    13   6 C    3.915 --    14 O    1.587    12 N    1.244    15 C    0.997
    14   8 O    1.905 --    13 C    1.587    12 N    0.171
    15   6 C    3.874 --    16 N    1.619    20 O    1.047    13 C    0.997
    16   7 N    3.001 --    15 C    1.619    17 N    1.202
    17   7 N    2.982 --    18 C    1.607    16 N    1.202
    18   6 C    3.867 --    17 N    1.607    20 O    1.074    19 C    1.032
    19   6 C    3.986 --    18 C    1.032    39 H    0.982    40 H    0.963
                            41 H    0.961
    20   8 O    2.317 --    18 C    1.074    15 C    1.047
    21   7 N    3.433 --    22 C    1.188     8 C    1.069    42 H    0.880
                            23 O    0.149
    22   6 C    3.892 --    23 O    1.669    21 N    1.188    24 C    0.907
    23   8 O    1.950 --    22 C    1.669    21 N    0.149
    24   6 C    3.846 --    25 O    1.806     5 C    0.964    22 C    0.907
    25   8 O    2.016 --    24 C    1.806
    26   1 H    1.006 --     1 C    0.981
    27   1 H    1.022 --     1 C    0.977
    28   1 H    1.007 --     1 C    0.981
    29   1 H    1.001 --     6 C    0.985
    30   1 H    1.006 --     6 C    0.983
    31   1 H    1.004 --     6 C    0.983
    32   1 H    0.998 --    10 C    0.984
    33   1 H    0.996 --    10 C    0.981
    34   1 H    0.999 --    10 C    0.983
    35   1 H    1.009 --    11 C    0.981
    36   1 H    1.008 --    11 C    0.983
    37   1 H    1.000 --    11 C    0.985
    38   1 H    0.931 --    12 N    0.889
    39   1 H    0.998 --    19 C    0.982
    40   1 H    0.996 --    19 C    0.963
    41   1 H    0.996 --    19 C    0.961
    42   1 H    0.931 --    21 N    0.880
 ---------------------------------------------------------------------------

           -------------------------------------------------
          | TOTAL ENERGY              -83.009014574261 Eh   |
          | GRADIENT NORM               0.000727819428 Eh/α |
          | HOMO-LUMO GAP               2.438726707575 eV   |
           -------------------------------------------------

 * finished run on 2023/06/21 at 17:19:08.659
