                         Program Version 5.0.1 -  RELEASE  -
|  1> # ORCA input file
|  2> ! SP r2SCAN-3c CPCM
|  3>
|  4> %maxcore 1875.0
|  5> %pal nprocs 4 end
|  6> %cpcm smd true SMDsolvent "DMSO" end
|  7>
|  8> *xyz -2 1
|  9> C      -5.806255    0.890598    0.512392
| 10> O      -4.937437    0.109649   -0.295375
| 11> C      -3.630319    0.084657    0.083438
| 12> O      -3.245230    0.686277    1.078049
| 13> C      -2.742185   -0.630168   -0.920753
| 14> C      -3.447453   -1.819344   -1.576828
| 15> N      -1.531858   -1.083014   -0.256032
| 16> C      -0.619836   -0.204810   -0.049205
| 17> C       0.552761   -0.543748    0.858751
| 18> C       0.263395    0.098742    2.222483
| 19> C       0.692055   -2.063304    1.013914
| 20> N       1.779759    0.059554    0.340090
| 21> C       2.305630   -0.394286   -0.879823
| 22> O       1.614682   -1.005360   -1.719752
| 23> C       3.672638   -0.031026   -1.086643
| 24> N       4.426774   -0.259075   -2.165399
| 25> N       5.667393    0.242810   -1.884014
| 26> C       5.627105    0.737139   -0.691062
| 27> C       6.736590    1.384549    0.051567
| 28> O       4.409084    0.614278   -0.107089
| 29> N      -0.672161    1.071407   -0.510805
| 30> C      -1.491376    1.441895   -1.625125
| 31> O      -1.161862    2.493811   -2.246828
| 32> C      -2.537282    0.538955   -1.927730
| 33> O      -3.342993    0.636102   -2.916441
| 34> H      -5.523600    1.948014    0.484135
| 35> H      -5.779228    0.547033    1.551027
| 36> H      -6.811992    0.767271    0.113563
| 37> H      -4.314320   -1.478707   -2.141894
| 38> H      -3.772713   -2.532051   -0.820212
| 39> H      -2.759553   -2.322098   -2.256887
| 40> H      -0.697165   -0.253519    2.598051
| 41> H       0.225902    1.183247    2.125565
| 42> H       1.039769   -0.162422    2.939351
| 43> H      -0.224104   -2.467283    1.443355
| 44> H       1.527261   -2.297268    1.671206
| 45> H       0.856755   -2.532028    0.044037
| 46> H       2.474838    0.241079    1.046948
| 47> H       7.621902    1.424370   -0.578228
| 48> H       6.458048    2.395845    0.347523
| 49> H       6.965457    0.821814    0.956500
| 50> H       0.131122    1.660423   -0.350874
| 51> **                         ****END OF INPUT****

CARTESIAN COORDINATES (ANGSTROEM)
---------------------------------
  C     -5.806255    0.890598    0.512392
  O     -4.937437    0.109649   -0.295375
  C     -3.630319    0.084657    0.083438
  O     -3.245230    0.686277    1.078049
  C     -2.742185   -0.630168   -0.920753
  C     -3.447453   -1.819344   -1.576828
  N     -1.531858   -1.083014   -0.256032
  C     -0.619836   -0.204810   -0.049205
  C      0.552761   -0.543748    0.858751
  C      0.263395    0.098742    2.222483
  C      0.692055   -2.063304    1.013914
  N      1.779759    0.059554    0.340090
  C      2.305630   -0.394286   -0.879823
  O      1.614682   -1.005360   -1.719752
  C      3.672638   -0.031026   -1.086643
  N      4.426774   -0.259075   -2.165399
  N      5.667393    0.242810   -1.884014
  C      5.627105    0.737139   -0.691062
  C      6.736590    1.384549    0.051567
  O      4.409084    0.614278   -0.107089
  N     -0.672161    1.071407   -0.510805
  C     -1.491376    1.441895   -1.625125
  O     -1.161862    2.493811   -2.246828
  C     -2.537282    0.538955   -1.927730
  O     -3.342993    0.636102   -2.916441
  H     -5.523600    1.948014    0.484135
  H     -5.779228    0.547033    1.551027
  H     -6.811992    0.767271    0.113563
  H     -4.314320   -1.478707   -2.141894
  H     -3.772713   -2.532051   -0.820212
  H     -2.759553   -2.322098   -2.256887
  H     -0.697165   -0.253519    2.598051
  H      0.225902    1.183247    2.125565
  H      1.039769   -0.162422    2.939351
  H     -0.224104   -2.467283    1.443355
  H      1.527261   -2.297268    1.671206
  H      0.856755   -2.532028    0.044037
  H      2.474838    0.241079    1.046948
  H      7.621902    1.424370   -0.578228
  H      6.458048    2.395845    0.347523
  H      6.965457    0.821814    0.956500
  H      0.131122    1.660423   -0.350874

 Total Charge           Charge          ....   -2
 Multiplicity           Mult            ....    1
 Number of Electrons    NEL             ....  186
 Basis Dimension        Dim             ....  615

ORBITAL ENERGIES
----------------

  NO   OCC          E(Eh)            E(eV)
   0   2.0000     -19.016994      -517.4787
   1   2.0000     -18.967837      -516.1411
   2   2.0000     -18.901221      -514.3284
   3   2.0000     -18.889638      -514.0132
   4   2.0000     -18.856443      -513.1099
   5   2.0000     -18.847990      -512.8799
   6   2.0000     -14.167937      -385.5292
   7   2.0000     -14.159508      -385.2998
   8   2.0000     -14.156167      -385.2089
   9   2.0000     -14.150937      -385.0666
  10   2.0000     -14.101104      -383.7106
  11   2.0000     -10.116984      -275.2971
  12   2.0000     -10.108096      -275.0553
  13   2.0000     -10.099967      -274.8341
  14   2.0000     -10.089253      -274.5425
  15   2.0000     -10.069991      -274.0184
  16   2.0000     -10.069210      -273.9971
  17   2.0000     -10.059718      -273.7389
  18   2.0000     -10.055958      -273.6365
  19   2.0000     -10.044923      -273.3362
  20   2.0000     -10.030889      -272.9544
  21   2.0000     -10.023391      -272.7503
  22   2.0000     -10.011063      -272.4149
  23   2.0000      -9.999883      -272.1107
  24   2.0000      -9.993445      -271.9355
  25   2.0000      -1.096750       -29.8441
  26   2.0000      -1.035383       -28.1742
  27   2.0000      -0.965757       -26.2796
  28   2.0000      -0.945665       -25.7329
  29   2.0000      -0.935933       -25.4680
  30   2.0000      -0.930454       -25.3189
  31   2.0000      -0.893104       -24.3026
  32   2.0000      -0.888515       -24.1777
  33   2.0000      -0.862179       -23.4611
  34   2.0000      -0.807751       -21.9800
  35   2.0000      -0.788814       -21.4647
  36   2.0000      -0.741833       -20.1863
  37   2.0000      -0.707836       -19.2612
  38   2.0000      -0.686421       -18.6785
  39   2.0000      -0.658756       -17.9257
  40   2.0000      -0.643510       -17.5108
  41   2.0000      -0.633409       -17.2359
  42   2.0000      -0.629113       -17.1190
  43   2.0000      -0.573713       -15.6115
  44   2.0000      -0.566672       -15.4199
  45   2.0000      -0.560251       -15.2452
  46   2.0000      -0.538611       -14.6564
  47   2.0000      -0.506357       -13.7787
  48   2.0000      -0.504845       -13.7375
  49   2.0000      -0.486155       -13.2290
  50   2.0000      -0.461848       -12.5675
  51   2.0000      -0.454650       -12.3716
  52   2.0000      -0.449537       -12.2325
  53   2.0000      -0.439614       -11.9625
  54   2.0000      -0.426520       -11.6062
  55   2.0000      -0.418542       -11.3891
  56   2.0000      -0.414709       -11.2848
  57   2.0000      -0.407050       -11.0764
  58   2.0000      -0.397626       -10.8200
  59   2.0000      -0.384137       -10.4529
  60   2.0000      -0.380730       -10.3602
  61   2.0000      -0.378237       -10.2923
  62   2.0000      -0.370942       -10.0939
  63   2.0000      -0.364014        -9.9053
  64   2.0000      -0.362743        -9.8707
  65   2.0000      -0.357059        -9.7161
  66   2.0000      -0.348195        -9.4749
  67   2.0000      -0.340817        -9.2741
  68   2.0000      -0.339094        -9.2272
  69   2.0000      -0.333233        -9.0677
  70   2.0000      -0.328932        -8.9507
  71   2.0000      -0.323897        -8.8137
  72   2.0000      -0.321020        -8.7354
  73   2.0000      -0.316140        -8.6026
  74   2.0000      -0.307651        -8.3716
  75   2.0000      -0.305670        -8.3177
  76   2.0000      -0.300723        -8.1831
  77   2.0000      -0.295579        -8.0431
  78   2.0000      -0.289600        -7.8804
  79   2.0000      -0.282151        -7.6777
  80   2.0000      -0.275674        -7.5015
  81   2.0000      -0.248582        -6.7643
  82   2.0000      -0.236282        -6.4296
  83   2.0000      -0.235266        -6.4019
  84   2.0000      -0.224942        -6.1210
  85   2.0000      -0.223014        -6.0685
  86   2.0000      -0.214582        -5.8391
  87   2.0000      -0.208263        -5.6671
  88   2.0000      -0.200180        -5.4472
  89   2.0000      -0.185747        -5.0544
  90   2.0000      -0.176212        -4.7950
  91   2.0000      -0.144327        -3.9273
  92   2.0000      -0.065538        -1.7834
  93   0.0000      -0.065109        -1.7717
  94   0.0000       0.002567         0.0699
  95   0.0000       0.008505         0.2314
  96   0.0000       0.036241         0.9862
  97   0.0000       0.068015         1.8508

MULLIKEN ATOMIC CHARGES
-----------------------
   0 C :   -0.345820
   1 O :   -0.146959
   2 C :    0.163184
   3 O :   -0.423787
   4 C :    0.283415
   5 C :   -0.649459
   6 N :   -0.261068
   7 C :    0.227734
   8 C :    0.219869
   9 C :   -0.602815
  10 C :   -0.681427
  11 N :   -0.268861
  12 C :   -0.312783
  13 O :   -0.455130
  14 C :    0.358273
  15 N :   -0.253573
  16 N :   -0.291962
  17 C :    0.325607
  18 C :   -0.647820
  19 O :   -0.095470
  20 N :   -0.095201
  21 C :   -0.241989
  22 O :   -0.440061
  23 C :   -0.181282
  24 O :   -0.413930
  25 H :    0.163175
  26 H :    0.163611
  27 H :    0.162864
  28 H :    0.183125
  29 H :    0.160581
  30 H :    0.159033
  31 H :    0.190862
  32 H :    0.178555
  33 H :    0.175322
  34 H :    0.175094
  35 H :    0.173156
  36 H :    0.197323
  37 H :    0.308667
  38 H :    0.193696
  39 H :    0.184381
  40 H :    0.185303
  41 H :    0.276566
Sum of atomic charges:   -2.0000000

LOEWDIN ATOMIC CHARGES
----------------------
   0 C :   -0.059453
   1 O :   -0.617557
   2 C :    0.385753
   3 O :   -0.468565
   4 C :    0.105218
   5 C :   -0.365242
   6 N :   -0.655634
   7 C :    0.322161
   8 C :    0.097036
   9 C :   -0.352548
  10 C :   -0.367328
  11 N :   -0.643085
  12 C :    0.324991
  13 O :   -0.527006
  14 C :    0.354213
  15 N :   -0.425779
  16 N :   -0.429221
  17 C :    0.332896
  18 C :   -0.331946
  19 O :   -0.448362
  20 N :   -0.551367
  21 C :    0.280076
  22 O :   -0.599986
  23 C :    0.153781
  24 O :   -0.662190
  25 H :    0.172091
  26 H :    0.173659
  27 H :    0.177097
  28 H :    0.177681
  29 H :    0.157606
  30 H :    0.158713
  31 H :    0.173579
  32 H :    0.169863
  33 H :    0.164042
  34 H :    0.169635
  35 H :    0.158989
  36 H :    0.178201
  37 H :    0.286609
  38 H :    0.183458
  39 H :    0.179736
  40 H :    0.179948
  41 H :    0.288236

  Mayer bond orders larger than 0.100000
B(  0-C ,  1-O ) :   0.8398 B(  0-C , 25-H ) :   0.9619 B(  0-C , 26-H ) :   0.9651
B(  0-C , 27-H ) :   0.9676 B(  1-O ,  2-C ) :   1.0458 B(  2-C ,  3-O ) :   1.7951
B(  2-C ,  4-C ) :   1.0085 B(  4-C ,  5-C ) :   0.7717 B(  4-C ,  6-N ) :   0.8299
B(  4-C , 20-N ) :   0.1380 B(  4-C , 23-C ) :   0.5927 B(  5-C , 28-H ) :   1.0050
B(  5-C , 29-H ) :   0.9813 B(  5-C , 30-H ) :   0.9919 B(  6-N ,  7-C ) :   1.8952
B(  7-C ,  8-C ) :   0.8296 B(  7-C , 20-N ) :   1.0960 B(  8-C ,  9-C ) :   0.8848
B(  8-C , 10-C ) :   0.8198 B(  8-C , 11-N ) :   0.7598 B(  9-C , 31-H ) :   0.9721
B(  9-C , 32-H ) :   0.9682 B(  9-C , 33-H ) :   0.9711 B( 10-C , 34-H ) :   0.9620
B( 10-C , 35-H ) :   0.9817 B( 10-C , 36-H ) :   0.9841 B( 11-N , 12-C ) :   1.0624
B( 11-N , 37-H ) :   0.8907 B( 12-C , 13-O ) :   1.8718 B( 12-C , 14-C ) :   0.7712
B( 13-O , 14-C ) :  -0.1566 B( 14-C , 15-N ) :   1.5461 B( 14-C , 17-C ) :   0.1021
B( 14-C , 19-O ) :   1.0098 B( 15-N , 16-N ) :   1.3362 B( 16-N , 17-C ) :   1.6969
B( 17-C , 18-C ) :   0.8092 B( 17-C , 19-O ) :   1.0255 B( 18-C , 38-H ) :   1.0003
B( 18-C , 39-H ) :   0.9511 B( 18-C , 40-H ) :   0.9498 B( 20-N , 21-C ) :   0.8735
B( 20-N , 23-C ) :  -0.1118 B( 20-N , 41-H ) :   0.8839 B( 21-C , 22-O ) :   2.1106
B( 21-C , 23-C ) :   0.9993 B( 22-O , 23-C ) :  -0.1521 B( 23-C , 24-O ) :   1.7709

Dispersion correction           -0.019990778
FINAL SINGLE POINT ENERGY     -1268.832013295586

DIPOLE MOMENT
-------------
                                X             Y             Z
Electronic contribution:      6.11529       4.65623     -10.41072
Nuclear contribution   :     -3.43364      -5.00016      17.68025
                        -----------------------------------------
Total Dipole Moment    :      2.68165      -0.34393       7.26954
                        -----------------------------------------
Magnitude (a.u.)       :      7.75601
Magnitude (Debye)      :     19.71422

Rotational constants in cm-1:     0.017905     0.003620     0.003452
Rotational constants in MHz :   536.784689   108.527377   103.481114

                             ****ORCA TERMINATED NORMALLY****
TOTAL RUN TIME: 0 days 0 hours 4 minutes 1 seconds 95 msec
