   * xtb version 6.5.1 (579679a) compiled by 'ehlert@majestix' on 2022-07-11
          program call               : /lustre/hpc/kemi/ree/PhD/git/ReactivityQM/dep/xtb-6.5.1/bin/xtb --gfn 1 /lustre/hpc/kemi/ree/PhD/git/ReactivityQM/calculations/R02methylcation/reac01prodE04/conf06/R02methylcation_reac01prodE04_conf06_gfn1.xyz --opt --vfukui --chrg -2 --uhf 0 --alpb DMSO

   ID    Z sym.   atoms
    1    6 C      1, 3, 5, 6, 8-11, 13, 15, 18, 19, 22, 24
    2    8 O      2, 4, 14, 20, 23, 25
    3    7 N      7, 12, 16, 17, 21
    4    1 H      26-42

      * Solvation model:               ALPB
        Solvent                        DMSO
        Solvent mass                       7.8130E+01 g/mol
          :  Hamiltonian                  GFN1-xTB          :
 * total energy  :   -83.5753472 Eh     change       -0.1381153E-08 Eh
 * total energy  :   -83.5957555 Eh     change       -0.2040833E-01 Eh
 * total energy  :   -83.6025414 Eh     change       -0.6785834E-02 Eh
 * total energy  :   -83.6041575 Eh     change       -0.1616102E-02 Eh
 * total energy  :   -83.6055576 Eh     change       -0.1400122E-02 Eh
 * total energy  :   -83.6063413 Eh     change       -0.7837016E-03 Eh
 * total energy  :   -83.6069077 Eh     change       -0.5663782E-03 Eh
 * total energy  :   -83.6074513 Eh     change       -0.5435940E-03 Eh
 * total energy  :   -83.6079622 Eh     change       -0.5109022E-03 Eh
 * total energy  :   -83.6084307 Eh     change       -0.4684881E-03 Eh
 * total energy  :   -83.6180693 Eh     change       -0.3027254E-04 Eh
 * total energy  :   -83.6180841 Eh     change       -0.1478303E-04 Eh
 * total energy  :   -83.6181014 Eh     change       -0.1732804E-04 Eh
 * total energy  :   -83.6181280 Eh     change       -0.2655721E-04 Eh
 * total energy  :   -83.6181483 Eh     change       -0.2038347E-04 Eh
 * total energy  :   -83.6181721 Eh     change       -0.2379967E-04 Eh
 * total energy  :   -83.6181874 Eh     change       -0.1526146E-04 Eh
 * total energy  :   -83.6181959 Eh     change       -0.8496294E-05 Eh
 * total energy  :   -83.6182005 Eh     change       -0.4601883E-05 Eh
   *** GEOMETRY OPTIMIZATION CONVERGED AFTER 62 ITERATIONS ***

 final structure:
================
42
 xtb: 6.5.1 (579679a)
C           -5.80625530358818        0.89059764746210        0.51239212992957
O           -4.93743670339451        0.10964855087251       -0.29537502756136
C           -3.63031942721028        0.08465685112937        0.08343848104406
O           -3.24522960798447        0.68627721793413        1.07804931757714
C           -2.74218522039537       -0.63016849210183       -0.92075340230817
C           -3.44745280402107       -1.81934441230564       -1.57682838938657
N           -1.53185790657670       -1.08301358770207       -0.25603181237137
C           -0.61983595275789       -0.20480993815455       -0.04920518490446
C            0.55276142276991       -0.54374835360256        0.85875106349532
C            0.26339548313543        0.09874242408640        2.22248336309430
C            0.69205486428603       -2.06330439530256        1.01391401997477
N            1.77975857829318        0.05955387752945        0.34008969992067
C            2.30562998434296       -0.39428603422503       -0.87982251126268
O            1.61468249945276       -1.00536019492518       -1.71975219546910
C            3.67263841213150       -0.03102575342729       -1.08664266945360
N            4.42677375473428       -0.25907543734224       -2.16539918543791
N            5.66739265566501        0.24280989496533       -1.88401380029837
C            5.62710530347431        0.73713885540269       -0.69106197805081
C            6.73659030001424        1.38454879507102        0.05156718712289
O            4.40908414007679        0.61427780891297       -0.10708897062168
N           -0.67216076129008        1.07140651817478       -0.51080464933836
C           -1.49137607648533        1.44189498036140       -1.62512515658946
O           -1.16186243589512        2.49381096929157       -2.24682759500751
C           -2.53728153363644        0.53895473855498       -1.92772998777837
O           -3.34299330461807        0.63610237440311       -2.91644068483022
H           -5.52359975456383        1.94801403282046        0.48413540485540
H           -5.77922810222211        0.54703253711499        1.55102742858800
H           -6.81199175070601        0.76727103898367        0.11356277429177
H           -4.31431989299622       -1.47870732296475       -2.14189354448274
H           -3.77271256673128       -2.53205139792187       -0.82021162215497
H           -2.75955253922134       -2.32209804899066       -2.25688673355896
H           -0.69716535267400       -0.25351943561696        2.59805146622946
H            0.22590159234244        1.18324652427600        2.12556512546306
H            1.03976892521005       -0.16242246726953        2.93935061524028
H           -0.22410410000763       -2.46728309652436        1.44335492207495
H            1.52726079110181       -2.29726848702450        1.67120564950193
H            0.85675501769783       -2.53202789218113        0.04403721405285
H            2.47483759148835        0.24107936910221        1.04694843825639
H            7.62190229888343        1.42437009091039       -0.57822785125465
H            6.45804829891120        2.39584493822950        0.34752341397304
H            6.96545697304424        0.82181416700986        0.95650038076639
H            0.13112220991741        1.66042254496973       -0.35087414332777

          :  Hamiltonian                  GFN1-xTB          :
         :: total energy             -83.618200497989 Eh    ::
         :: gradient norm              0.000846366219 Eh/a0 ::
         :: HOMO-LUMO gap              0.036231943605 eV    ::
         :: SCC energy               -84.345990007612 Eh    ::
         :: -> Gsolv                  -0.298448902619 Eh    ::
         :: repulsion energy           0.754925928376 Eh    ::

    * Orbital Energies and Occupations

         #    Occupation            Energy/Eh            Energy/eV
      -------------------------------------------------------------
         1        2.0000           -0.8025663             -21.8389
       ...           ...                  ...                  ...
        56        2.0000           -0.4426677             -12.0456
        57        2.0000           -0.4403225             -11.9818
        58        2.0000           -0.4278021             -11.6411
        59        2.0000           -0.4224730             -11.4961
        60        2.0000           -0.4094240             -11.1410
        61        2.0000           -0.4042008             -10.9989
        62        2.0000           -0.4028567             -10.9623
        63        2.0000           -0.3980150             -10.8305
        64        2.0000           -0.3896503             -10.6029
        65        2.0000           -0.3765069             -10.2453
        66        2.0000           -0.3711741             -10.1002
        67        2.0000           -0.3432467              -9.3402
        68        1.3367           -0.2677209              -7.2851 (HOMO)
        69        0.6633           -0.2663894              -7.2488 (LUMO)
        70                         -0.2190836              -5.9616
        71                         -0.2098189              -5.7095
        72                         -0.1971216              -5.3640
        73                         -0.1399583              -3.8085
        74                         -0.1233318              -3.3560
        75                         -0.1218474              -3.3156
        76                         -0.1121085              -3.0506
        77                         -0.1029572              -2.8016
        78                         -0.0946724              -2.5762
        79                         -0.0884730              -2.4075
       ...                                ...                  ...
       134                          0.7142315              19.4352
      -------------------------------------------------------------
                  HL-Gap            0.0013315 Eh            0.0362 eV

Wiberg/Mayer (AO) data.
largest (>0.10) Wiberg bond orders for each atom

     #   Z sym  total        # sym  WBO       # sym  WBO       # sym  WBO
 ---------------------------------------------------------------------------
     1   6 C    3.898 --    28 H    0.987    27 H    0.981    26 H    0.981
                             2 O    0.923
     2   8 O    2.148 --     3 C    1.039     1 C    0.923     4 O    0.106
     3   6 C    3.773 --     4 O    1.588     2 O    1.039     5 C    0.945
     4   8 O    1.847 --     3 C    1.588     2 O    0.106
     5   6 C    3.960 --     6 C    0.992     7 N    0.982     3 C    0.945
                            24 C    0.875
     6   6 C    3.991 --     5 C    0.992    30 H    0.989    31 H    0.987
                            29 H    0.984
     7   7 N    2.938 --     8 C    1.654     5 C    0.982    21 N    0.144
     8   6 C    3.931 --     7 N    1.654    21 N    1.176     9 C    0.969
     9   6 C    3.951 --    11 C    0.991    10 C    0.986     8 C    0.969
                            12 N    0.946
    10   6 C    3.995 --     9 C    0.986    33 H    0.985    32 H    0.985
                            34 H    0.985
    11   6 C    3.993 --     9 C    0.991    36 H    0.988    35 H    0.985
                            37 H    0.981
    12   7 N    3.149 --    13 C    1.078     9 C    0.946    38 H    0.918
                            14 O    0.109
    13   6 C    3.753 --    14 O    1.458    15 C    1.150    12 N    1.078
    14   8 O    1.680 --    13 C    1.458    12 N    0.109
    15   6 C    3.693 --    16 N    1.404    13 C    1.150    20 O    0.968
    16   7 N    2.728 --    15 C    1.404    17 N    1.189
    17   7 N    2.981 --    18 C    1.628    16 N    1.189
    18   6 C    3.813 --    17 N    1.628    20 O    1.042    19 C    1.024
    19   6 C    3.994 --    18 C    1.024    39 H    0.986    40 H    0.971
                            41 H    0.970
    20   8 O    2.180 --    18 C    1.042    15 C    0.968
    21   7 N    3.327 --     8 C    1.176    22 C    0.968    42 H    0.912
                             7 N    0.144
    22   6 C    3.751 --    23 O    1.390    24 C    1.240    21 N    0.968
    23   8 O    1.603 --    22 C    1.390
    24   6 C    3.727 --    25 O    1.368    22 C    1.240     5 C    0.875
    25   8 O    1.572 --    24 C    1.368
    26   1 H    1.012 --     1 C    0.981
    27   1 H    1.014 --     1 C    0.981
    28   1 H    1.016 --     1 C    0.987
    29   1 H    1.028 --     6 C    0.984
    30   1 H    1.011 --     6 C    0.989
    31   1 H    1.013 --     6 C    0.987
    32   1 H    1.011 --    10 C    0.985
    33   1 H    1.007 --    10 C    0.985
    34   1 H    1.002 --    10 C    0.985
    35   1 H    1.019 --    11 C    0.985
    36   1 H    1.005 --    11 C    0.988
    37   1 H    1.021 --    11 C    0.981
    38   1 H    0.960 --    12 N    0.918
    39   1 H    1.004 --    19 C    0.986
    40   1 H    1.000 --    19 C    0.971
    41   1 H    1.000 --    19 C    0.970
    42   1 H    0.974 --    21 N    0.912
 ---------------------------------------------------------------------------

           -------------------------------------------------
          | TOTAL ENERGY              -83.618200497989 Eh   |
          | GRADIENT NORM               0.000846366219 Eh/α |
          | HOMO-LUMO GAP               0.036231943605 eV   |
           -------------------------------------------------

 * finished run on 2023/06/21 at 17:10:29.096
