   * xtb version 6.5.1 (579679a) compiled by 'ehlert@majestix' on 2022-07-11
          program call               : /lustre/hpc/kemi/ree/PhD/git/ReactivityQM/dep/xtb-6.5.1/bin/xtb --gfn 1 /lustre/hpc/kemi/ree/PhD/git/ReactivityQM/calculations/R02methylcation/reac01prodN06/conf16/R02methylcation_reac01prodN06_conf16_gfn1.xyz --opt --vfukui --chrg 0 --uhf 0 --alpb DMSO

   ID    Z sym.   atoms
    1    6 C      1, 3, 5, 7-10, 12, 14, 16, 17, 20, 22, 24
    2    8 O      2, 4, 13, 15, 23, 25
    3    7 N      6, 11, 18, 19, 21
    4    1 H      26-42

      * Solvation model:               ALPB
        Solvent                        DMSO
        Solvent mass                       7.8130E+01 g/mol
          :  Hamiltonian                  GFN1-xTB          :
 * total energy  :   -82.9549157 Eh     change       -0.1421085E-12 Eh
 * total energy  :   -82.9690384 Eh     change       -0.1412263E-01 Eh
 * total energy  :   -82.9759276 Eh     change       -0.6889275E-02 Eh
 * total energy  :   -82.9775082 Eh     change       -0.1580604E-02 Eh
 * total energy  :   -82.9789032 Eh     change       -0.1394905E-02 Eh
 * total energy  :   -82.9795968 Eh     change       -0.6936075E-03 Eh
 * total energy  :   -82.9801261 Eh     change       -0.5293365E-03 Eh
 * total energy  :   -82.9805804 Eh     change       -0.4542729E-03 Eh
 * total energy  :   -82.9809164 Eh     change       -0.3360101E-03 Eh
 * total energy  :   -82.9811274 Eh     change       -0.2109910E-03 Eh
 * total energy  :   -82.9821299 Eh     change       -0.1847381E-04 Eh
 * total energy  :   -82.9821417 Eh     change       -0.1187494E-04 Eh
 * total energy  :   -82.9821582 Eh     change       -0.1649460E-04 Eh
 * total energy  :   -82.9821746 Eh     change       -0.1635076E-04 Eh
 * total energy  :   -82.9821867 Eh     change       -0.1207229E-04 Eh
 * total energy  :   -82.9821961 Eh     change       -0.9493675E-05 Eh
 * total energy  :   -82.9822064 Eh     change       -0.1025390E-04 Eh
 * total energy  :   -82.9822163 Eh     change       -0.9869236E-05 Eh
 * total energy  :   -82.9822211 Eh     change       -0.4788764E-05 Eh
   *** GEOMETRY OPTIMIZATION CONVERGED AFTER 37 ITERATIONS ***

 final structure:
================
42
 xtb: 6.5.1 (579679a)
C           -5.89683268151160        1.72866207921244        0.50164033965640
O           -4.69372063508695        0.99585691919029        0.30316078997242
C           -4.61534304594511        0.29052191254904       -0.86191091056060
O           -5.53422969505420        0.30967920167016       -1.66270665324141
C           -3.35788183029164       -0.43685042081697       -0.98794888643492
N           -2.47420463380594       -0.27589433717854        0.05595869418016
C           -1.34418157287135       -0.88322290803791        0.06107688183369
C           -0.40485098270571       -0.70146754387386        1.23984134070357
C           -1.02394282969277        0.28088477850441        2.23496365315998
C           -0.10056601568724       -2.03220825051145        1.93387456204070
N            0.84918754130366       -0.06901125316734        0.76268539676088
C            1.84920889286309       -0.69224132309519        0.14176262775024
O            1.90723743792536       -1.86297313013502       -0.19990965072014
C            2.99976310090230        0.22326448284321       -0.13845508021734
O            2.99708172077690        1.51447306956773        0.17870134552746
C            4.20021208733860        1.99182634276950       -0.18945811941595
C            4.54563811795496        3.40657501320595        0.02849799994322
N            4.93402161455104        1.05804392459974       -0.71573433060217
N            4.17039024902465       -0.05296720443029       -0.67816551609881
C            4.72097770052698       -1.29568588943027       -1.17655922068728
N           -0.95637188318646       -1.71002202081515       -0.96887662437953
C           -1.72048157302217       -1.94263212547711       -2.08645225298303
O           -1.29635459154233       -2.67550506969669       -2.97375149632425
C           -3.06775930887044       -1.25277865837216       -2.11763673093802
O           -3.80887427043248       -1.43242213173059       -3.09612805990319
H           -6.04509246794013        2.45457990067245       -0.30416669713542
H           -5.79704941704324        2.24908052640602        1.45288685072547
H           -6.75876380556779        1.05437610550976        0.53637210689350
H           -0.34128104115798        0.45199161232185        3.06448076353365
H           -1.95709710321724       -0.13080508134110        2.61714452548611
H           -1.24060481276623        1.22858147094567        1.74381367441458
H            0.25693813330916       -2.77945574418281        1.22965769227614
H            0.65533720453339       -1.88246538497181        2.70220619365659
H           -1.01282320065497       -2.40063644876008        2.40167841938134
H            0.96564876054035        0.90850956668406        0.97474609724778
H            3.81281412314259        4.04574283007837       -0.46455607870731
H            4.51614239689151        3.62860378091508        1.09585657426967
H            5.53980046705575        3.60891788858607       -0.36211061746846
H            3.98723782647179       -2.08630296590317       -1.04148748499137
H            5.62942247798974       -1.51152436791298       -0.61657871146373
H            4.96316436557188       -1.16670599614739       -2.23068088768928
H           -0.05191682060914       -2.15639515022152       -0.93541551947849

          :  Hamiltonian                  GFN1-xTB          :
         :: total energy             -82.982221056731 Eh    ::
         :: gradient norm              0.000477700165 Eh/a0 ::
         :: HOMO-LUMO gap              0.205287730419 eV    ::
         :: SCC energy               -83.768951978015 Eh    ::
         :: -> Gsolv                  -0.115805474600 Eh    ::
         :: repulsion energy           0.812115347063 Eh    ::

    * Orbital Energies and Occupations

         #    Occupation            Energy/Eh            Energy/eV
      -------------------------------------------------------------
         1        2.0000           -0.9275778             -25.2407
       ...           ...                  ...                  ...
        55        2.0000           -0.5101479             -13.8818
        56        2.0000           -0.5051034             -13.7446
        57        2.0000           -0.5011558             -13.6371
        58        2.0000           -0.4916115             -13.3774
        59        2.0000           -0.4863196             -13.2334
        60        2.0000           -0.4743667             -12.9082
        61        2.0000           -0.4704006             -12.8003
        62        2.0000           -0.4640835             -12.6284
        63        2.0000           -0.4484156             -12.2020
        64        2.0000           -0.4446669             -12.1000
        65        2.0000           -0.4264390             -11.6040
        66        2.0000           -0.3861811             -10.5085
        67        1.9630           -0.3749640             -10.2033 (HOMO)
        68        0.0370           -0.3674198              -9.9980 (LUMO)
        69                         -0.3156208              -8.5885
        70                         -0.2774618              -7.5501
        71                         -0.2519810              -6.8568
        72                         -0.2445777              -6.6553
        73                         -0.2036743              -5.5423
        74                         -0.1654263              -4.5015
        75                         -0.1633788              -4.4458
        76                         -0.1315341              -3.5792
        77                         -0.1259263              -3.4266
        78                         -0.1245161              -3.3883
       ...                                ...                  ...
       134                          0.7632836              20.7700
      -------------------------------------------------------------
                  HL-Gap            0.0075442 Eh            0.2053 eV

Wiberg/Mayer (AO) data.
largest (>0.10) Wiberg bond orders for each atom

     #   Z sym  total        # sym  WBO       # sym  WBO       # sym  WBO
 ---------------------------------------------------------------------------
     1   6 C    3.895 --    27 H    0.987    28 H    0.980    26 H    0.980
                             2 O    0.922
     2   8 O    2.143 --     3 C    1.037     1 C    0.922     4 O    0.112
     3   6 C    3.847 --     4 O    1.604     5 C    1.100     2 O    1.037
     4   8 O    1.871 --     3 C    1.604     2 O    0.112
     5   6 C    3.876 --    24 C    1.249     6 N    1.173     3 C    1.100
                            25 O    0.118
     6   7 N    3.028 --     7 C    1.611     5 C    1.173
     7   6 C    3.919 --     6 N    1.611    21 N    1.109     8 C    0.965
     8   6 C    3.911 --     9 C    1.001    10 C    0.990     7 C    0.965
                            11 N    0.888
     9   6 C    3.990 --     8 C    1.001    29 H    0.986    31 H    0.982
                            30 H    0.981
    10   6 C    3.987 --     8 C    0.990    33 H    0.984    34 H    0.983
                            32 H    0.979
    11   7 N    3.397 --    12 C    1.319    35 H    0.889     8 C    0.888
                            13 O    0.197
    12   6 C    3.917 --    13 O    1.549    11 N    1.319    14 C    0.970
    13   8 O    1.924 --    12 C    1.549    11 N    0.197
    14   6 C    3.797 --    19 N    1.425    15 O    1.109    12 C    0.970
    15   8 O    2.347 --    14 C    1.109    16 C    1.064
    16   6 C    3.839 --    18 N    1.587    15 O    1.064    17 C    1.042
    17   6 C    3.972 --    16 C    1.042    38 H    0.978    36 H    0.952
                            37 H    0.949
    18   7 N    2.959 --    16 C    1.587    19 N    1.146
    19   7 N    3.613 --    14 C    1.425    18 N    1.146    20 C    0.911
    20   6 C    3.882 --    39 H    0.972    40 H    0.966    41 H    0.966
                            19 N    0.911
    21   7 N    3.427 --    22 C    1.156     7 C    1.109    42 H    0.880
                            23 O    0.134
    22   6 C    3.874 --    23 O    1.590    21 N    1.156    24 C    0.963
    23   8 O    1.861 --    22 C    1.590    21 N    0.134
    24   6 C    3.931 --    25 O    1.541     5 C    1.249    22 C    0.963
    25   8 O    1.822 --    24 C    1.541     5 C    0.118
    26   1 H    1.013 --     1 C    0.980
    27   1 H    1.015 --     1 C    0.987
    28   1 H    1.012 --     1 C    0.980
    29   1 H    0.999 --     9 C    0.986
    30   1 H    1.009 --     9 C    0.981
    31   1 H    1.008 --     9 C    0.982
    32   1 H    1.008 --    10 C    0.979
    33   1 H    0.999 --    10 C    0.984
    34   1 H    1.001 --    10 C    0.983
    35   1 H    0.930 --    11 N    0.889
    36   1 H    0.990 --    17 C    0.952
    37   1 H    0.989 --    17 C    0.949
    38   1 H    0.991 --    17 C    0.978
    39   1 H    1.005 --    20 C    0.972
    40   1 H    0.991 --    20 C    0.966
    41   1 H    0.991 --    20 C    0.966
    42   1 H    0.947 --    21 N    0.880
 ---------------------------------------------------------------------------

           -------------------------------------------------
          | TOTAL ENERGY              -82.982221056731 Eh   |
          | GRADIENT NORM               0.000477700165 Eh/α |
          | HOMO-LUMO GAP               0.205287730419 eV   |
           -------------------------------------------------

 * finished run on 2023/06/21 at 17:36:32.314
