                         Program Version 5.0.1 -  RELEASE  -
|  1> # ORCA input file
|  2> ! SP r2SCAN-3c CPCM
|  3>
|  4> %maxcore 1875.0
|  5> %pal nprocs 4 end
|  6> %cpcm smd true SMDsolvent "DMSO" end
|  7>
|  8> *xyz 0 1
|  9> C       2.410679    1.628402    4.016648
| 10> O       2.895466    0.864862    2.919282
| 11> C       1.994769    0.577158    1.955263
| 12> O       0.830912    0.967719    2.038807
| 13> C       2.511044   -0.212373    0.849056
| 14> N       1.537136   -0.476529   -0.090507
| 15> C       1.774203   -1.158498   -1.148568
| 16> C       0.627300   -1.406319   -2.118753
| 17> C       0.908623   -0.800582   -3.497880
| 18> C       0.299878   -2.899905   -2.223434
| 19> N      -0.485622   -0.697929   -1.487880
| 20> C      -1.751243   -0.615246   -1.869627
| 21> O      -2.283954   -1.089138   -2.854699
| 22> C      -2.521777    0.207819   -0.856287
| 23> N      -3.772411    0.556543   -0.824427
| 24> N      -3.900612    1.283250    0.308082
| 25> C      -5.190277    1.832693    0.661112
| 26> C      -2.742990    1.356955    0.932822
| 27> C      -2.363456    2.020373    2.191112
| 28> O      -1.866195    0.689294    0.217432
| 29> N       3.021429   -1.670738   -1.410131
| 30> C       4.095057   -1.494890   -0.564213
| 31> O       5.180058   -1.982708   -0.858987
| 32> C       3.839145   -0.688309    0.697033
| 33> O       4.781668   -0.505827    1.484122
| 34> H       3.247415    1.777902    4.698092
| 35> H       2.031296    2.595037    3.674139
| 36> H       1.604209    1.095487    4.527892
| 37> H       1.114246    0.264652   -3.402937
| 38> H       1.769553   -1.292174   -3.946484
| 39> H       0.044132   -0.941002   -4.145260
| 40> H      -0.557321   -3.046520   -2.878803
| 41> H       1.154622   -3.434599   -2.633374
| 42> H       0.068030   -3.300189   -1.237667
| 43> H      -0.179959   -0.249337   -0.613685
| 44> H      -5.613439    2.309506   -0.220710
| 45> H      -5.839166    1.022748    0.992357
| 46> H      -5.052283    2.555926    1.459342
| 47> H      -2.553846    3.091355    2.124415
| 48> H      -2.952801    1.623985    3.017846
| 49> H      -1.300710    1.841109    2.369965
| 50> H       3.187192   -2.199959   -2.250505
| 51> **                         ****END OF INPUT****

CARTESIAN COORDINATES (ANGSTROEM)
---------------------------------
  C      2.410679    1.628402    4.016648
  O      2.895466    0.864862    2.919282
  C      1.994769    0.577158    1.955263
  O      0.830912    0.967719    2.038807
  C      2.511044   -0.212373    0.849056
  N      1.537136   -0.476529   -0.090507
  C      1.774203   -1.158498   -1.148568
  C      0.627300   -1.406319   -2.118753
  C      0.908623   -0.800582   -3.497880
  C      0.299878   -2.899905   -2.223434
  N     -0.485622   -0.697929   -1.487880
  C     -1.751243   -0.615246   -1.869627
  O     -2.283954   -1.089138   -2.854699
  C     -2.521777    0.207819   -0.856287
  N     -3.772411    0.556543   -0.824427
  N     -3.900612    1.283250    0.308082
  C     -5.190277    1.832693    0.661112
  C     -2.742990    1.356955    0.932822
  C     -2.363456    2.020373    2.191112
  O     -1.866195    0.689294    0.217432
  N      3.021429   -1.670738   -1.410131
  C      4.095057   -1.494890   -0.564213
  O      5.180058   -1.982708   -0.858987
  C      3.839145   -0.688309    0.697033
  O      4.781668   -0.505827    1.484122
  H      3.247415    1.777902    4.698092
  H      2.031296    2.595037    3.674139
  H      1.604209    1.095487    4.527892
  H      1.114246    0.264652   -3.402937
  H      1.769553   -1.292174   -3.946484
  H      0.044132   -0.941002   -4.145260
  H     -0.557321   -3.046520   -2.878803
  H      1.154622   -3.434599   -2.633374
  H      0.068030   -3.300189   -1.237667
  H     -0.179959   -0.249337   -0.613685
  H     -5.613439    2.309506   -0.220710
  H     -5.839166    1.022748    0.992357
  H     -5.052283    2.555926    1.459342
  H     -2.553846    3.091355    2.124415
  H     -2.952801    1.623985    3.017846
  H     -1.300710    1.841109    2.369965
  H      3.187192   -2.199959   -2.250505

 Total Charge           Charge          ....    0
 Multiplicity           Mult            ....    1
 Number of Electrons    NEL             ....  184
 Basis Dimension        Dim             ....  615

ORBITAL ENERGIES
----------------

  NO   OCC          E(Eh)            E(eV)
   0   2.0000     -19.103114      -519.8221
   1   2.0000     -18.975641      -516.3534
   2   2.0000     -18.937421      -515.3134
   3   2.0000     -18.911961      -514.6206
   4   2.0000     -18.909371      -514.5501
   5   2.0000     -18.883392      -513.8432
   6   2.0000     -14.316624      -389.5751
   7   2.0000     -14.248897      -387.7322
   8   2.0000     -14.205916      -386.5626
   9   2.0000     -14.194302      -386.2466
  10   2.0000     -14.149041      -385.0150
  11   2.0000     -10.208310      -277.7822
  12   2.0000     -10.180290      -277.0198
  13   2.0000     -10.164450      -276.5887
  14   2.0000     -10.132165      -275.7102
  15   2.0000     -10.121019      -275.4069
  16   2.0000     -10.100864      -274.8585
  17   2.0000     -10.099915      -274.8327
  18   2.0000     -10.088992      -274.5354
  19   2.0000     -10.079257      -274.2705
  20   2.0000     -10.065197      -273.8879
  21   2.0000     -10.062174      -273.8057
  22   2.0000     -10.041993      -273.2565
  23   2.0000     -10.022202      -272.7180
  24   2.0000     -10.021978      -272.7119
  25   2.0000      -1.209135       -32.9022
  26   2.0000      -1.049500       -28.5583
  27   2.0000      -1.046887       -28.4872
  28   2.0000      -1.027461       -27.9586
  29   2.0000      -1.004253       -27.3271
  30   2.0000      -0.954444       -25.9718
  31   2.0000      -0.946227       -25.7482
  32   2.0000      -0.944428       -25.6992
  33   2.0000      -0.913935       -24.8694
  34   2.0000      -0.893974       -24.3263
  35   2.0000      -0.855180       -23.2706
  36   2.0000      -0.787088       -21.4177
  37   2.0000      -0.768825       -20.9208
  38   2.0000      -0.724792       -19.7226
  39   2.0000      -0.716671       -19.5016
  40   2.0000      -0.699881       -19.0447
  41   2.0000      -0.674713       -18.3599
  42   2.0000      -0.661425       -17.9983
  43   2.0000      -0.636435       -17.3183
  44   2.0000      -0.632114       -17.2007
  45   2.0000      -0.616401       -16.7731
  46   2.0000      -0.597767       -16.2661
  47   2.0000      -0.564265       -15.3544
  48   2.0000      -0.544320       -14.8117
  49   2.0000      -0.526789       -14.3347
  50   2.0000      -0.525841       -14.3089
  51   2.0000      -0.511354       -13.9146
  52   2.0000      -0.495236       -13.4760
  53   2.0000      -0.477741       -13.0000
  54   2.0000      -0.465022       -12.6539
  55   2.0000      -0.462324       -12.5805
  56   2.0000      -0.448761       -12.2114
  57   2.0000      -0.442445       -12.0395
  58   2.0000      -0.438187       -11.9237
  59   2.0000      -0.436177       -11.8690
  60   2.0000      -0.429156       -11.6779
  61   2.0000      -0.422657       -11.5011
  62   2.0000      -0.418237       -11.3808
  63   2.0000      -0.415970       -11.3191
  64   2.0000      -0.405433       -11.0324
  65   2.0000      -0.403828       -10.9887
  66   2.0000      -0.395584       -10.7644
  67   2.0000      -0.393381       -10.7044
  68   2.0000      -0.383188       -10.4271
  69   2.0000      -0.382950       -10.4206
  70   2.0000      -0.370678       -10.0867
  71   2.0000      -0.363398        -9.8886
  72   2.0000      -0.356735        -9.7073
  73   2.0000      -0.356327        -9.6961
  74   2.0000      -0.354058        -9.6344
  75   2.0000      -0.351090        -9.5536
  76   2.0000      -0.335192        -9.1210
  77   2.0000      -0.330970        -9.0061
  78   2.0000      -0.326820        -8.8932
  79   2.0000      -0.317329        -8.6350
  80   2.0000      -0.312433        -8.5017
  81   2.0000      -0.303995        -8.2721
  82   2.0000      -0.296300        -8.0627
  83   2.0000      -0.258994        -7.0476
  84   2.0000      -0.257603        -7.0097
  85   2.0000      -0.251270        -6.8374
  86   2.0000      -0.248918        -6.7734
  87   2.0000      -0.244679        -6.6580
  88   2.0000      -0.232901        -6.3376
  89   2.0000      -0.216778        -5.8988
  90   2.0000      -0.179062        -4.8725
  91   2.0000      -0.162941        -4.4338
  92   0.0000      -0.102853        -2.7988
  93   0.0000      -0.079671        -2.1680
  94   0.0000      -0.056914        -1.5487
  95   0.0000      -0.012871        -0.3502
  96   0.0000       0.034057         0.9267

MULLIKEN ATOMIC CHARGES
-----------------------
   0 C :   -0.327974
   1 O :   -0.152824
   2 C :    0.210101
   3 O :   -0.459208
   4 C :   -0.085993
   5 N :   -0.203760
   6 C :    0.362869
   7 C :   -0.272416
   8 C :   -0.573505
   9 C :   -0.575994
  10 N :    0.058179
  11 C :   -0.115593
  12 O :   -0.435252
  13 C :    0.453290
  14 N :   -0.374381
  15 N :    0.445490
  16 C :   -0.390852
  17 C :    0.302558
  18 C :   -0.638321
  19 O :   -0.000936
  20 N :   -0.024808
  21 C :    0.052501
  22 O :   -0.390277
  23 C :   -0.095975
  24 O :   -0.369491
  25 H :    0.166520
  26 H :    0.163956
  27 H :    0.163843
  28 H :    0.184324
  29 H :    0.185607
  30 H :    0.194290
  31 H :    0.195581
  32 H :    0.185883
  33 H :    0.184587
  34 H :    0.347987
  35 H :    0.211275
  36 H :    0.214077
  37 H :    0.207874
  38 H :    0.228264
  39 H :    0.228349
  40 H :    0.236043
  41 H :    0.304113
Sum of atomic charges:    0.0000000

LOEWDIN ATOMIC CHARGES
----------------------
   0 C :   -0.053068
   1 O :   -0.596308
   2 C :    0.395060
   3 O :   -0.496735
   4 C :    0.130569
   5 N :   -0.623243
   6 C :    0.334311
   7 C :    0.109336
   8 C :   -0.347221
   9 C :   -0.347026
  10 N :   -0.587962
  11 C :    0.380077
  12 O :   -0.447467
  13 C :    0.476611
  14 N :   -0.199912
  15 N :   -0.509637
  16 C :   -0.021512
  17 C :    0.483025
  18 C :   -0.299619
  19 O :   -0.346517
  20 N :   -0.471809
  21 C :    0.360033
  22 O :   -0.468547
  23 C :    0.231733
  24 O :   -0.559816
  25 H :    0.178900
  26 H :    0.174606
  27 H :    0.174525
  28 H :    0.174046
  29 H :    0.171323
  30 H :    0.175922
  31 H :    0.176742
  32 H :    0.171475
  33 H :    0.174278
  34 H :    0.325355
  35 H :    0.216122
  36 H :    0.213598
  37 H :    0.214983
  38 H :    0.209348
  39 H :    0.209274
  40 H :    0.215045
  41 H :    0.300098

  Mayer bond orders larger than 0.100000
B(  0-C ,  1-O ) :   0.8458 B(  0-C , 25-H ) :   0.9680 B(  0-C , 26-H ) :   0.9620
B(  0-C , 27-H ) :   0.9617 B(  1-O ,  2-C ) :   1.1326 B(  2-C ,  3-O ) :   1.7778
B(  2-C ,  4-C ) :   1.1617 B(  4-C ,  5-N ) :   0.9955 B(  4-C , 23-C ) :   0.9465
B(  4-C , 24-O ) :  -0.1036 B(  5-N ,  6-C ) :   1.7097 B(  5-N , 34-H ) :   0.1323
B(  6-C ,  7-C ) :   0.7609 B(  6-C , 10-N ) :  -0.1304 B(  6-C , 20-N ) :   1.0698
B(  7-C ,  8-C ) :   0.9336 B(  7-C ,  9-C ) :   0.9257 B(  7-C , 10-N ) :   0.9543
B(  8-C , 28-H ) :   0.9663 B(  8-C , 29-H ) :   0.9585 B(  8-C , 30-H ) :   0.9604
B(  9-C , 31-H ) :   0.9599 B(  9-C , 32-H ) :   0.9583 B(  9-C , 33-H ) :   0.9671
B( 10-N , 11-C ) :   1.2267 B( 10-N , 34-H ) :   0.7490 B( 11-C , 12-O ) :   1.9111
B( 11-C , 13-C ) :   0.7958 B( 13-C , 14-N ) :   1.7118 B( 13-C , 17-C ) :   0.1079
B( 13-C , 19-O ) :   1.0974 B( 14-N , 15-N ) :   1.3151 B( 14-N , 17-C ) :   0.1503
B( 15-N , 16-C ) :   0.9100 B( 15-N , 17-C ) :   1.4880 B( 16-C , 35-H ) :   0.9265
B( 16-C , 36-H ) :   0.9177 B( 16-C , 37-H ) :   0.9348 B( 17-C , 18-C ) :   0.8499
B( 17-C , 19-O ) :   1.1365 B( 18-C , 38-H ) :   0.9278 B( 18-C , 39-H ) :   0.9280
B( 18-C , 40-H ) :   0.9540 B( 20-N , 21-C ) :   0.9876 B( 20-N , 41-H ) :   0.8837
B( 21-C , 22-O ) :   2.0831 B( 21-C , 23-C ) :   0.8783 B( 23-C , 24-O ) :   1.9616

Dispersion correction           -0.019064771
FINAL SINGLE POINT ENERGY     -1268.632895454398

DIPOLE MOMENT
-------------
                                X             Y             Z
Electronic contribution:      5.01986      -2.13942      -1.31974
Nuclear contribution   :    -15.45611       5.61614       2.01882
                        -----------------------------------------
Total Dipole Moment    :    -10.43625       3.47671       0.69909
                        -----------------------------------------
Magnitude (a.u.)       :     11.02232
Magnitude (Debye)      :     28.01652

Rotational constants in cm-1:     0.010025     0.005267     0.003539
Rotational constants in MHz :   300.545900   157.905263   106.095120

                             ****ORCA TERMINATED NORMALLY****
TOTAL RUN TIME: 0 days 0 hours 1 minutes 34 seconds 707 msec
