   * xtb version 6.5.1 (579679a) compiled by 'ehlert@majestix' on 2022-07-11
          program call               : /lustre/hpc/kemi/ree/PhD/git/ReactivityQM/dep/xtb-6.5.1/bin/xtb --gfn 1 /lustre/hpc/kemi/ree/PhD/git/ReactivityQM/calculations/R02oxygendeprot/reac01prodN07/conf05/R02oxygendeprot_reac01prodN07_conf05_gfn1.xyz --opt --vfukui --chrg 0 --uhf 0 --alpb DMSO

   ID    Z sym.   atoms
    1    6 C      1, 3, 5, 7-10, 12, 14, 17-19, 22, 24
    2    8 O      2, 4, 13, 20, 23, 25
    3    7 N      6, 11, 15, 16, 21
    4    1 H      26-42

      * Solvation model:               ALPB
        Solvent                        DMSO
        Solvent mass                       7.8130E+01 g/mol
          :  Hamiltonian                  GFN1-xTB          :
 * total energy  :   -82.9533011 Eh     change       -0.4995115E-10 Eh
 * total energy  :   -82.9700234 Eh     change       -0.1672229E-01 Eh
 * total energy  :   -82.9767443 Eh     change       -0.6720901E-02 Eh
 * total energy  :   -82.9776526 Eh     change       -0.9083405E-03 Eh
 * total energy  :   -82.9782630 Eh     change       -0.6103525E-03 Eh
 * total energy  :   -82.9785152 Eh     change       -0.2522715E-03 Eh
 * total energy  :   -82.9788337 Eh     change       -0.3184358E-03 Eh
 * total energy  :   -82.9791487 Eh     change       -0.3150629E-03 Eh
 * total energy  :   -82.9794561 Eh     change       -0.3073735E-03 Eh
 * total energy  :   -82.9797748 Eh     change       -0.3186800E-03 Eh
 * total energy  :   -82.9838231 Eh     change       -0.8049184E-04 Eh
 * total energy  :   -82.9839215 Eh     change       -0.9844517E-04 Eh
 * total energy  :   -82.9839725 Eh     change       -0.5093102E-04 Eh
 * total energy  :   -82.9840056 Eh     change       -0.3311403E-04 Eh
 * total energy  :   -82.9840588 Eh     change       -0.5322914E-04 Eh
 * total energy  :   -82.9840817 Eh     change       -0.2290074E-04 Eh
 * total energy  :   -82.9840929 Eh     change       -0.1123357E-04 Eh
 * total energy  :   -82.9840989 Eh     change       -0.6016342E-05 Eh
 * total energy  :   -82.9841022 Eh     change       -0.3289965E-05 Eh
   *** GEOMETRY OPTIMIZATION CONVERGED AFTER 67 ITERATIONS ***

 final structure:
================
42
 xtb: 6.5.1 (579679a)
C            2.41067920318296        1.62840158192444        4.01664750879245
O            2.89546583474746        0.86486245746713        2.91928176298900
C            1.99476851923994        0.57715814797839        1.95526266814489
O            0.83091154905551        0.96771916587863        2.03880663488816
C            2.51104437335691       -0.21237294616021        0.84905634049010
N            1.53713612950258       -0.47652862141170       -0.09050691942736
C            1.77420329740711       -1.15849824239726       -1.14856784252109
C            0.62730017679254       -1.40631940253155       -2.11875273796723
C            0.90862300912898       -0.80058200070865       -3.49788018473936
C            0.29987824484211       -2.89990527791654       -2.22343377119382
N           -0.48562210050347       -0.69792872877599       -1.48788038815707
C           -1.75124294895088       -0.61524622705622       -1.86962703768943
O           -2.28395406463342       -1.08913816024902       -2.85469938190096
C           -2.52177673778529        0.20781881370336       -0.85628735673743
N           -3.77241083781884        0.55654286996468       -0.82442688211500
N           -3.90061166286000        1.28325035395286        0.30808249431643
C           -5.19027715001824        1.83269307942913        0.66111173820423
C           -2.74299021579722        1.35695492966270        0.93282191903294
C           -2.36345617383593        2.02037263866287        2.19111178239115
O           -1.86619500104511        0.68929400157533        0.21743222605633
N            3.02142928011457       -1.67073835671101       -1.41013139809248
C            4.09505662115432       -1.49489003995819       -0.56421277175931
O            5.18005805848655       -1.98270786593870       -0.85898703093484
C            3.83914480198773       -0.68830911219406        0.69703290219071
O            4.78166814281554       -0.50582695848433        1.48412219915408
H            3.24741515533558        1.77790221908678        4.69809203630370
H            2.03129593249547        2.59503671253746        3.67413931563389
H            1.60420939672246        1.09548652770346        4.52789239048631
H            1.11424596879685        0.26465151210166       -3.40293731131768
H            1.76955330670598       -1.29217434275174       -3.94648441995751
H            0.04413187553212       -0.94100173186683       -4.14525963890802
H           -0.55732110874920       -3.04652036734546       -2.87880281180064
H            1.15462219557459       -3.43459871183063       -2.63337428443920
H            0.06803034231767       -3.30018901822604       -1.23766735206976
H           -0.17995876964868       -0.24933672081878       -0.61368498385453
H           -5.61343901274873        2.30950563205446       -0.22071033996455
H           -5.83916589129004        1.02274777935622        0.99235703833224
H           -5.05228328464039        2.55592605704463        1.45934185426181
H           -2.55384574527693        3.09135514154484        2.12441495697460
H           -2.95280064242695        1.62398479078434        3.01784626003180
H           -1.30070975441761        1.84110905040970        2.36996496671029
H            3.18719168713560       -2.19995862948787       -2.25050514984567

          :  Hamiltonian                  GFN1-xTB          :
         :: total energy             -82.984102239819 Eh    ::
         :: gradient norm              0.000554569152 Eh/a0 ::
         :: HOMO-LUMO gap              0.772124951310 eV    ::
         :: SCC energy               -83.769802429444 Eh    ::
         :: -> Gsolv                  -0.097045393700 Eh    ::
         :: repulsion energy           0.811932142848 Eh    ::

    * Orbital Energies and Occupations

         #    Occupation            Energy/Eh            Energy/eV
      -------------------------------------------------------------
         1        2.0000           -0.9288398             -25.2750
       ...           ...                  ...                  ...
        55        2.0000           -0.5080319             -13.8243
        56        2.0000           -0.4991561             -13.5827
        57        2.0000           -0.4949786             -13.4691
        58        2.0000           -0.4924498             -13.4002
        59        2.0000           -0.4783652             -13.0170
        60        2.0000           -0.4713475             -12.8260
        61        2.0000           -0.4633086             -12.6073
        62        2.0000           -0.4591796             -12.4949
        63        2.0000           -0.4496423             -12.2354
        64        2.0000           -0.4464482             -12.1485
        65        2.0000           -0.4276981             -11.6383
        66        2.0000           -0.3874426             -10.5429
        67        2.0000           -0.3740274             -10.1778 (HOMO)
        68        0.0000           -0.3456524              -9.4057 (LUMO)
        69                         -0.3350865              -9.1182
        70                         -0.2781102              -7.5678
        71                         -0.2493447              -6.7850
        72                         -0.2277403              -6.1971
        73                         -0.2057125              -5.5977
        74                         -0.1790485              -4.8722
        75                         -0.1633198              -4.4442
        76                         -0.1339976              -3.6463
        77                         -0.1247540              -3.3947
        78                         -0.1245433              -3.3890
       ...                                ...                  ...
       134                          0.7552745              20.5521
      -------------------------------------------------------------
                  HL-Gap            0.0283751 Eh            0.7721 eV

Wiberg/Mayer (AO) data.
largest (>0.10) Wiberg bond orders for each atom

     #   Z sym  total        # sym  WBO       # sym  WBO       # sym  WBO
 ---------------------------------------------------------------------------
     1   6 C    3.894 --    26 H    0.987    28 H    0.981    27 H    0.980
                             2 O    0.920
     2   8 O    2.171 --     3 C    1.064     1 C    0.920     4 O    0.109
     3   6 C    3.850 --     4 O    1.553     5 C    1.117     2 O    1.064
     4   8 O    1.862 --     3 C    1.553     2 O    0.109
     5   6 C    3.910 --    24 C    1.266     6 N    1.146     3 C    1.117
                            25 O    0.128
     6   7 N    3.092 --     7 C    1.620     5 C    1.146
     7   6 C    3.935 --     6 N    1.620    21 N    1.110     8 C    0.973
     8   6 C    3.926 --     9 C    0.983    10 C    0.983     7 C    0.973
                            11 N    0.920
     9   6 C    3.988 --    29 H    0.985    30 H    0.984     8 C    0.983
                            31 H    0.982
    10   6 C    3.988 --    34 H    0.985    33 H    0.984     8 C    0.983
                            32 H    0.982
    11   7 N    3.411 --    12 C    1.334     8 C    0.920    35 H    0.831
                            13 O    0.208
    12   6 C    3.930 --    13 O    1.581    11 N    1.334    14 C    0.942
    13   8 O    1.909 --    12 C    1.581    11 N    0.208
    14   6 C    3.832 --    15 N    1.620    20 O    1.055    12 C    0.942
    15   7 N    2.975 --    14 C    1.620    16 N    1.140
    16   7 N    3.625 --    18 C    1.423    15 N    1.140    17 C    0.915
    17   6 C    3.892 --    38 H    0.981    36 H    0.971    37 H    0.966
                            16 N    0.915
    18   6 C    3.837 --    16 N    1.423    20 O    1.151    19 C    1.038
    19   6 C    3.957 --    18 C    1.038    41 H    0.962    40 H    0.948
                            39 H    0.947
    20   8 O    2.386 --    18 C    1.151    14 C    1.055
    21   7 N    3.425 --    22 C    1.146     7 C    1.110    42 H    0.895
                            23 O    0.133
    22   6 C    3.875 --    23 O    1.595    21 N    1.146    24 C    0.961
    23   8 O    1.874 --    22 C    1.595    21 N    0.133
    24   6 C    3.942 --    25 O    1.533     5 C    1.266    22 C    0.961
    25   8 O    1.838 --    24 C    1.533     5 C    0.128
    26   1 H    1.014 --     1 C    0.987
    27   1 H    1.013 --     1 C    0.980
    28   1 H    1.012 --     1 C    0.981
    29   1 H    1.002 --     9 C    0.985
    30   1 H    1.000 --     9 C    0.984
    31   1 H    1.004 --     9 C    0.982
    32   1 H    1.005 --    10 C    0.982
    33   1 H    1.000 --    10 C    0.984
    34   1 H    1.002 --    10 C    0.985
    35   1 H    0.959 --    11 N    0.831
    36   1 H    0.992 --    17 C    0.971
    37   1 H    0.991 --    17 C    0.966
    38   1 H    0.991 --    17 C    0.981
    39   1 H    0.989 --    19 C    0.947
    40   1 H    0.989 --    19 C    0.948
    41   1 H    1.009 --    19 C    0.962
    42   1 H    0.942 --    21 N    0.895
 ---------------------------------------------------------------------------

           -------------------------------------------------
          | TOTAL ENERGY              -82.984102239819 Eh   |
          | GRADIENT NORM               0.000554569152 Eh/α |
          | HOMO-LUMO GAP               0.772124951310 eV   |
           -------------------------------------------------

 * finished run on 2023/06/21 at 17:22:56.623
