   * xtb version 6.5.1 (579679a) compiled by 'ehlert@majestix' on 2022-07-11
          program call               : /lustre/hpc/kemi/ree/PhD/git/ReactivityQM/dep/xtb-6.5.1/bin/xtb --gfn 1 /lustre/hpc/kemi/ree/PhD/git/ReactivityQM/calculations/R02methylcation/reac01prodE11/conf06/R02methylcation_reac01prodE11_conf06_gfn1.xyz --opt --vfukui --chrg -2 --uhf 0 --alpb DMSO

   ID    Z sym.   atoms
    1    6 C      1, 3, 5, 7-10, 12, 14, 17-19, 22, 24
    2    8 O      2, 4, 13, 20, 23, 25
    3    7 N      6, 11, 15, 16, 21
    4    1 H      26-42

      * Solvation model:               ALPB
        Solvent                        DMSO
        Solvent mass                       7.8130E+01 g/mol
          :  Hamiltonian                  GFN1-xTB          :
 * total energy  :   -83.6517975 Eh     change       -0.3008438E-10 Eh
 * total energy  :   -83.6630130 Eh     change       -0.1121548E-01 Eh
 * total energy  :   -83.6666017 Eh     change       -0.3588678E-02 Eh
 * total energy  :   -83.6670995 Eh     change       -0.4978170E-03 Eh
 * total energy  :   -83.6673459 Eh     change       -0.2463438E-03 Eh
 * total energy  :   -83.6674518 Eh     change       -0.1059521E-03 Eh
 * total energy  :   -83.6675540 Eh     change       -0.1021904E-03 Eh
 * total energy  :   -83.6676265 Eh     change       -0.7251419E-04 Eh
 * total energy  :   -83.6676663 Eh     change       -0.3979635E-04 Eh
 * total energy  :   -83.6676919 Eh     change       -0.2562129E-04 Eh
 * total energy  :   -83.6677519 Eh     change       -0.2079458E-04 Eh
 * total energy  :   -83.6677648 Eh     change       -0.1288038E-04 Eh
 * total energy  :   -83.6677856 Eh     change       -0.2081133E-04 Eh
 * total energy  :   -83.6677968 Eh     change       -0.1121953E-04 Eh
 * total energy  :   -83.6678051 Eh     change       -0.8281221E-05 Eh
 * total energy  :   -83.6678125 Eh     change       -0.7434032E-05 Eh
 * total energy  :   -83.6678194 Eh     change       -0.6904848E-05 Eh
 * total energy  :   -83.6678256 Eh     change       -0.6167463E-05 Eh
 * total energy  :   -83.6678298 Eh     change       -0.4239408E-05 Eh
   *** GEOMETRY OPTIMIZATION CONVERGED AFTER 21 ITERATIONS ***

 final structure:
================
42
 xtb: 6.5.1 (579679a)
C           -7.06714964085911        0.51607575154924        1.35831641149782
O           -5.94408340640487        0.86611133345983        0.56493130191738
C           -4.85743601130862        0.05708399940204        0.69066736784283
O           -4.88444295727186       -0.89859721330903        1.45973863050293
C           -3.72416396335942        0.42383523077173       -0.14131196929123
N           -2.64906239771541       -0.43604867435885        0.01335607888885
C           -1.56975402824301       -0.25754218624111       -0.65234463008736
C           -0.40027254301439       -1.21823202099217       -0.54279041753436
C           -0.52853497707581       -2.03907420016649        0.74844370116883
C           -0.43651486074127       -2.13808443789809       -1.77540165946652
N            0.81919748912718       -0.40817248565913       -0.55181247261574
C            2.07469945631565       -1.02280718448546       -0.31899038686392
O            2.27127825620731       -2.22825472797762       -0.56460383404335
C            3.02638762826136       -0.09311558593122        0.15457264826034
N            2.78140646757311        1.18135028601781        0.43303606023758
N            3.84782591675888        1.78542700270162        0.86404260980976
C            4.93740226504064        0.79579622773147        0.88147770686687
C            6.07008981193943        1.24977677336455       -0.05508090792426
C            5.45716942817286        0.62547051727262        2.31924699120726
O            4.36987549056271       -0.41908999784225        0.41494900165784
N           -1.43336098215043        0.78380883073737       -1.54896706892444
C           -2.40901785602901        1.70768757303519       -1.80008117321690
O           -2.20564762108896        2.60926672946378       -2.61416686090610
C           -3.69816366601425        1.53064097511019       -1.02866542073030
O           -4.62246521511667        2.34595947564645       -1.22129219148138
H           -7.84933692021849        1.24379883170994        1.14517827906977
H           -6.81632707391113        0.54547443869802        2.42378924433271
H           -7.42106276412866       -0.48950600977716        1.10910312640530
H           -1.49567413032106       -2.54107984947655        0.76498507765364
H           -0.46089082020521       -1.38421034577885        1.61691615226058
H            0.26142808076283       -2.78618340264810        0.80182557047174
H           -1.39765039277662       -2.64987016608784       -1.82069701843389
H            0.35651051539842       -2.88182280045271       -1.72430693543901
H           -0.30833779075566       -1.54746406421316       -2.68196074199309
H            0.72294149605002        0.45410536335211       -0.02208871757166
H            6.87918862550554        0.52143969343052       -0.04942904515562
H            6.45159247092193        2.21453820166988        0.27257804407317
H            5.68461905727564        1.34519527225531       -1.06904948855092
H            6.23713306975343       -0.13312891953753        2.35050630952738
H            5.85862609013070        1.57074315225172        2.67830531222436
H            4.63622513747384        0.31898976951913        2.96567337588097
H           -0.56424473452242        0.87971184368291       -2.05398206152326

          :  Hamiltonian                  GFN1-xTB          :
         :: total energy             -83.667829823694 Eh    ::
         :: gradient norm              0.000459833726 Eh/a0 ::
         :: HOMO-LUMO gap              1.320919210198 eV    ::
         :: SCC energy               -84.404565996951 Eh    ::
         :: -> Gsolv                  -0.252997106523 Eh    ::
         :: repulsion energy           0.762095211210 Eh    ::

    * Orbital Energies and Occupations

         #    Occupation            Energy/Eh            Energy/eV
      -------------------------------------------------------------
         1        2.0000           -0.7931381             -21.5824
       ...           ...                  ...                  ...
        56        2.0000           -0.4472228             -12.1696
        57        2.0000           -0.4434233             -12.0662
        58        2.0000           -0.4312078             -11.7338
        59        2.0000           -0.4305581             -11.7161
        60        2.0000           -0.4295846             -11.6896
        61        2.0000           -0.4132417             -11.2449
        62        2.0000           -0.4064328             -11.0596
        63        2.0000           -0.4001900             -10.8897
        64        2.0000           -0.3875012             -10.5444
        65        2.0000           -0.3709079             -10.0929
        66        2.0000           -0.3673502              -9.9961
        67        2.0000           -0.3572029              -9.7200
        68        2.0000           -0.3116510              -8.4805 (HOMO)
        69                         -0.2631081              -7.1595 (LUMO)
        70                         -0.2359696              -6.4211
        71                         -0.2264636              -6.1624
        72                         -0.1900972              -5.1728
        73                         -0.1227183              -3.3393
        74                         -0.1194082              -3.2493
        75                         -0.1026055              -2.7920
        76                         -0.1016852              -2.7670
        77                         -0.0989102              -2.6915
        78                         -0.0956257              -2.6021
        79                         -0.0955388              -2.5997
       ...                                ...                  ...
       134                          0.7564476              20.5840
      -------------------------------------------------------------
                  HL-Gap            0.0485429 Eh            1.3209 eV

Wiberg/Mayer (AO) data.
largest (>0.10) Wiberg bond orders for each atom

     #   Z sym  total        # sym  WBO       # sym  WBO       # sym  WBO
 ---------------------------------------------------------------------------
     1   6 C    3.902 --    26 H    0.987    28 H    0.980    27 H    0.980
                             2 O    0.928
     2   8 O    2.155 --     3 C    1.040     1 C    0.928     4 O    0.108
     3   6 C    3.849 --     4 O    1.570     5 C    1.122     2 O    1.040
     4   8 O    1.847 --     3 C    1.570     2 O    0.108
     5   6 C    3.918 --    24 C    1.277     6 N    1.146     3 C    1.122
                            25 O    0.130
     6   7 N    3.026 --     7 C    1.638     5 C    1.146
     7   6 C    3.928 --     6 N    1.638    21 N    1.092     8 C    0.977
     8   6 C    3.957 --     9 C    0.990    10 C    0.982     7 C    0.977
                            11 N    0.950
     9   6 C    3.994 --     8 C    0.990    30 H    0.986    29 H    0.985
                            31 H    0.984
    10   6 C    3.992 --    32 H    0.988    34 H    0.986     8 C    0.982
                            33 H    0.978
    11   7 N    3.162 --    12 C    1.045     8 C    0.950    35 H    0.921
    12   6 C    3.924 --    13 O    1.467    14 C    1.228    11 N    1.045
    13   8 O    1.812 --    12 C    1.467
    14   6 C    3.849 --    15 N    1.391    12 C    1.228    20 O    0.933
                            16 N    0.160
    15   7 N    3.049 --    16 N    1.465    14 C    1.391
    16   7 N    2.880 --    15 N    1.465    17 C    0.981    14 C    0.160
    17   6 C    3.901 --    16 N    0.981    18 C    0.977    19 C    0.977
                            20 O    0.929
    18   6 C    3.995 --    37 H    0.988    36 H    0.987    38 H    0.985
                            17 C    0.977
    19   6 C    3.995 --    40 H    0.988    39 H    0.987    41 H    0.985
                            17 C    0.977
    20   8 O    2.054 --    14 C    0.933    17 C    0.929
    21   7 N    3.434 --    22 C    1.174     7 C    1.092    42 H    0.896
                            23 O    0.136
    22   6 C    3.882 --    23 O    1.564    21 N    1.174    24 C    0.971
    23   8 O    1.845 --    22 C    1.564    21 N    0.136
    24   6 C    3.944 --    25 O    1.509     5 C    1.277    22 C    0.971
    25   8 O    1.814 --    24 C    1.509     5 C    0.130
    26   1 H    1.016 --     1 C    0.987
    27   1 H    1.015 --     1 C    0.980
    28   1 H    1.015 --     1 C    0.980
    29   1 H    1.018 --     9 C    0.985
    30   1 H    1.008 --     9 C    0.986
    31   1 H    1.015 --     9 C    0.984
    32   1 H    1.007 --    10 C    0.988
    33   1 H    1.024 --    10 C    0.978
    34   1 H    1.009 --    10 C    0.986
    35   1 H    0.987 --    11 N    0.921
    36   1 H    1.008 --    18 C    0.987
    37   1 H    1.011 --    18 C    0.988
    38   1 H    1.015 --    18 C    0.985
    39   1 H    1.009 --    19 C    0.987
    40   1 H    1.010 --    19 C    0.988
    41   1 H    1.015 --    19 C    0.985
    42   1 H    0.956 --    21 N    0.896
 ---------------------------------------------------------------------------

           -------------------------------------------------
          | TOTAL ENERGY              -83.667829823694 Eh   |
          | GRADIENT NORM               0.000459833726 Eh/α |
          | HOMO-LUMO GAP               1.320919210198 eV   |
           -------------------------------------------------

 * finished run on 2023/06/21 at 17:22:37.412
