   * xtb version 6.5.1 (579679a) compiled by 'ehlert@majestix' on 2022-07-11
          program call               : /lustre/hpc/kemi/ree/PhD/git/ReactivityQM/dep/xtb-6.5.1/bin/xtb --gfn 1 /lustre/hpc/kemi/ree/PhD/git/ReactivityQM/calculations/R02deprot/reac01prodN12/conf01/R02deprot_reac01prodN12_conf01_gfn1.xyz --opt --vfukui --chrg 0 --uhf 0 --alpb DMSO

   ID    Z sym.   atoms
    1    6 C      1, 3, 5, 7-10, 12, 13, 15, 18, 19, 22, 24
    2    8 O      2, 4, 14, 20, 23, 25
    3    7 N      6, 11, 16, 17, 21
    4    1 H      26-42

      * Solvation model:               ALPB
        Solvent                        DMSO
        Solvent mass                       7.8130E+01 g/mol
          :  Hamiltonian                  GFN1-xTB          :
 * total energy  :   -82.8421644 Eh     change       -0.2074785E-11 Eh
 * total energy  :   -82.8554271 Eh     change       -0.1326262E-01 Eh
 * total energy  :   -82.8618904 Eh     change       -0.6463389E-02 Eh
 * total energy  :   -82.8641061 Eh     change       -0.2215673E-02 Eh
 * total energy  :   -82.8658042 Eh     change       -0.1698062E-02 Eh
 * total energy  :   -82.8668833 Eh     change       -0.1079092E-02 Eh
 * total energy  :   -82.8677990 Eh     change       -0.9157075E-03 Eh
 * total energy  :   -82.8686257 Eh     change       -0.8266837E-03 Eh
 * total energy  :   -82.8687936 Eh     change       -0.1679793E-03 Eh
 * total energy  :   -82.8694388 Eh     change       -0.6452005E-03 Eh
 * total energy  :   -82.8728865 Eh     change       -0.2388051E-04 Eh
 * total energy  :   -82.8728966 Eh     change       -0.1010081E-04 Eh
 * total energy  :   -82.8729071 Eh     change       -0.1048644E-04 Eh
 * total energy  :   -82.8729135 Eh     change       -0.6431389E-05 Eh
 * total energy  :   -82.8729326 Eh     change       -0.1914046E-04 Eh
 * total energy  :   -82.8729052 Eh     change        0.2746481E-04 Eh
 * total energy  :   -82.8729342 Eh     change       -0.2905713E-04 Eh
 * total energy  :   -82.8729429 Eh     change       -0.8653313E-05 Eh
 * total energy  :   -82.8729464 Eh     change       -0.3516562E-05 Eh
   *** GEOMETRY OPTIMIZATION CONVERGED AFTER 75 ITERATIONS ***

 final structure:
================
42
 xtb: 6.5.1 (579679a)
C            2.66592623866643        3.34301401993501        0.60582125670584
O            2.36629455376567        1.97362955082162        0.31471087091150
C            3.41136723388066        1.17017564002009        0.13798350637680
O            4.55803263816356        1.54185608330598        0.19676010861848
C            2.98951230691950       -0.24291172987948       -0.13294150633777
N            1.67282482728790       -0.49554786746669       -0.18087892078253
C            1.26413543538594       -1.72653729948220       -0.49191036013607
C           -0.23089006684763       -1.93513716210021       -0.56456187402623
C           -0.69292002038756       -1.70813940406612       -2.01875687454591
C           -0.58070841644671       -3.36295405481784       -0.10649136233610
N           -0.84714627854265       -0.98006294820626        0.30861921401550
C           -2.26972529435152       -0.71404251326248        0.34523459460958
C           -2.62468724264455       -0.67611319735308        1.89326651947579
O           -3.03438231599555       -1.50350443726298       -0.31003035609123
C           -2.38124462749318        0.77139059110850       -0.09380147336266
N           -1.78448429563167        1.30376423881584       -1.10652447423265
N           -2.23604672282921        2.59387553437215       -1.17221330581405
C           -3.06718314548426        2.75644539313943       -0.19345218901299
C           -3.82314451602646        3.97463087312514        0.16902796610467
O           -3.20194305534227        1.62885830908600        0.53258386370161
N            2.04946878695835       -2.71940263219332       -0.83579158593967
C            3.40183501114710       -2.59463348376020       -0.78618791261975
O            4.21002316243279       -3.49298141416268       -0.99101375105318
C            3.89925636012701       -1.24993824511075       -0.41060465518562
O            5.20819862847932       -1.11529100638912       -0.30160391436334
H            3.21467025881705        3.79156687108878       -0.22563198255347
H            3.26807153553885        3.40737025796460        1.51475140135643
H            1.71269444398630        3.84688171227770        0.74748556894475
H           -0.55006229181338       -0.66056195650889       -2.28153338867704
H           -0.09467186122471       -2.33822988067106       -2.67381020957635
H           -1.74324104982931       -1.96619800150649       -2.13664987965136
H           -0.01642174186920       -4.06486499072070       -0.71872123314394
H           -0.30135858664830       -3.48876417668159        0.93725098557646
H           -1.64754263372796       -3.54104514692324       -0.22101161088277
H           -0.23486710207943       -0.39880979984443        0.86593037464760
H           -2.45882674369720       -1.67540937572735        2.28273723003464
H           -2.00317440132247        0.04931585926681        2.40623502785943
H           -3.67372107425171       -0.40669023030603        1.96722784363472
H           -4.89404181935046        3.77565068935980        0.12908787144192
H           -3.57441054921368        4.77716058737616       -0.52116515832248
H           -3.57453287311211        4.27623585837657        1.18617111639752
H            5.64906430460693       -1.92404911504698       -0.62875934179125

          :  Hamiltonian                  GFN1-xTB          :
         :: total energy             -82.872946393092 Eh    ::
         :: gradient norm              0.000322098682 Eh/a0 ::
         :: HOMO-LUMO gap              0.115352383925 eV    ::
         :: SCC energy               -83.634089972085 Eh    ::
         :: -> Gsolv                  -0.056181595068 Eh    ::
         :: repulsion energy           0.787704938410 Eh    ::

    * Orbital Energies and Occupations

         #    Occupation            Energy/Eh            Energy/eV
      -------------------------------------------------------------
         1        2.0000           -0.8717745             -23.7222
       ...           ...                  ...                  ...
        55        2.0000           -0.5076924             -13.8150
        56        2.0000           -0.5026182             -13.6769
        57        2.0000           -0.4963100             -13.5053
        58        2.0000           -0.4870751             -13.2540
        59        2.0000           -0.4859322             -13.2229
        60        2.0000           -0.4796397             -13.0517
        61        2.0000           -0.4674844             -12.7209
        62        2.0000           -0.4654773             -12.6663
        63        2.0000           -0.4626017             -12.5880
        64        2.0000           -0.4514659             -12.2850
        65        2.0000           -0.4506706             -12.2634
        66        1.9985           -0.4303505             -11.7104
        67        1.8068           -0.4256428             -11.5823 (HOMO)
        68        0.1948           -0.4214037             -11.4670 (LUMO)
        69                         -0.3209628              -8.7338
        70                         -0.2886672              -7.8550
        71                         -0.2770928              -7.5401
        72                         -0.2592328              -7.0541
        73                         -0.2368098              -6.4439
        74                         -0.1624555              -4.4206
        75                         -0.1451253              -3.9491
        76                         -0.1417061              -3.8560
        77                         -0.1344041              -3.6573
        78                         -0.1265623              -3.4439
       ...                                ...                  ...
       134                          0.7355015              20.0140
      -------------------------------------------------------------
                  HL-Gap            0.0042391 Eh            0.1154 eV

Wiberg/Mayer (AO) data.
largest (>0.10) Wiberg bond orders for each atom

     #   Z sym  total        # sym  WBO       # sym  WBO       # sym  WBO
 ---------------------------------------------------------------------------
     1   6 C    3.866 --    28 H    0.986    26 H    0.979    27 H    0.979
                             2 O    0.893
     2   8 O    2.205 --     3 C    1.121     1 C    0.893     4 O    0.136
     3   6 C    3.843 --     4 O    1.669     2 O    1.121     5 C    0.975
     4   8 O    1.928 --     3 C    1.669     2 O    0.136
     5   6 C    3.924 --    24 C    1.373     6 N    1.318     3 C    0.975
     6   7 N    3.012 --     7 C    1.328     5 C    1.318
     7   6 C    3.927 --    21 N    1.438     6 N    1.328     8 C    0.980
     8   6 C    3.925 --     7 C    0.980    11 N    0.978     9 C    0.942
                            10 C    0.935
     9   6 C    3.971 --    29 H    0.983    30 H    0.981    31 H    0.974
                             8 C    0.942
    10   6 C    3.968 --    33 H    0.985    34 H    0.981    32 H    0.976
                             8 C    0.935
    11   7 N    3.313 --     8 C    0.978    12 C    0.950    35 H    0.886
                            14 O    0.195
    12   6 C    3.893 --    14 O    1.264    11 N    0.950    15 C    0.824
                            13 C    0.781
    13   6 C    3.850 --    37 H    0.987    36 H    0.982    38 H    0.978
                            12 C    0.781
    14   8 O    1.698 --    12 C    1.264    11 N    0.195
    15   6 C    3.796 --    16 N    1.651    20 O    1.072    12 C    0.824
    16   7 N    2.999 --    15 C    1.651    17 N    1.163
    17   7 N    2.989 --    18 C    1.629    16 N    1.163
    18   6 C    3.858 --    17 N    1.629    20 O    1.054    19 C    1.031
    19   6 C    3.984 --    18 C    1.031    40 H    0.982    41 H    0.963
                            39 H    0.963
    20   8 O    2.319 --    15 C    1.072    18 C    1.054
    21   7 N    3.033 --     7 C    1.438    22 C    1.185    23 O    0.101
    22   6 C    3.883 --    23 O    1.568    21 N    1.185    24 C    1.003
    23   8 O    1.828 --    22 C    1.568    21 N    0.101
    24   6 C    3.773 --     5 C    1.373    25 O    1.164    22 C    1.003
    25   8 O    2.084 --    24 C    1.164    42 H    0.792
    26   1 H    1.006 --     1 C    0.979
    27   1 H    1.006 --     1 C    0.979
    28   1 H    1.010 --     1 C    0.986
    29   1 H    1.016 --     9 C    0.983
    30   1 H    1.001 --     9 C    0.981
    31   1 H    1.010 --     9 C    0.974
    32   1 H    1.009 --    10 C    0.976
    33   1 H    1.002 --    10 C    0.985
    34   1 H    1.010 --    10 C    0.981
    35   1 H    0.952 --    11 N    0.886
    36   1 H    0.996 --    13 C    0.982
    37   1 H    0.997 --    13 C    0.987
    38   1 H    1.001 --    13 C    0.978
    39   1 H    0.996 --    19 C    0.963
    40   1 H    0.997 --    19 C    0.982
    41   1 H    0.996 --    19 C    0.963
    42   1 H    0.836 --    25 O    0.792
 ---------------------------------------------------------------------------

           -------------------------------------------------
          | TOTAL ENERGY              -82.872946393092 Eh   |
          | GRADIENT NORM               0.000322098682 Eh/α |
          | HOMO-LUMO GAP               0.115352383925 eV   |
           -------------------------------------------------

 * finished run on 2023/06/20 at 18:20:49.840
