   * xtb version 6.5.1 (579679a) compiled by 'ehlert@majestix' on 2022-07-11
          program call               : /lustre/hpc/kemi/ree/PhD/git/ReactivityQM/dep/xtb-6.5.1/bin/xtb --gfn 1 /lustre/hpc/kemi/ree/PhD/git/ReactivityQM/calculations/RaltegravirCLI/reac02prodN11/conf09/RaltegravirCLI_reac02prodN11_conf09_gfn1.xyz --opt --vfukui --chrg 1 --uhf 0 --alpb DMSO

   ID    Z sym.   atoms
    1    6 C      1, 3-6, 9, 10, 13-18, 20-22, 24
    2    7 N      2, 7, 8, 12
    3    8 O      11, 23, 25
    4    9 F      19
    5    1 H      26-47

      * Solvation model:               ALPB
        Solvent                        DMSO
        Solvent mass                       7.8130E+01 g/mol
          :  Hamiltonian                  GFN1-xTB          :
 * total energy  :   -79.4582818 Eh     change       -0.4092726E-11 Eh
 * total energy  :   -79.4660314 Eh     change       -0.7749591E-02 Eh
 * total energy  :   -79.4686370 Eh     change       -0.2605521E-02 Eh
 * total energy  :   -79.4694383 Eh     change       -0.8013529E-03 Eh
 * total energy  :   -79.4701898 Eh     change       -0.7515204E-03 Eh
 * total energy  :   -79.4706648 Eh     change       -0.4750031E-03 Eh
 * total energy  :   -79.4710531 Eh     change       -0.3882134E-03 Eh
 * total energy  :   -79.4713851 Eh     change       -0.3320618E-03 Eh
 * total energy  :   -79.4716409 Eh     change       -0.2557633E-03 Eh
 * total energy  :   -79.4718851 Eh     change       -0.2441922E-03 Eh
 * total energy  :   -79.4725423 Eh     change       -0.2014623E-04 Eh
 * total energy  :   -79.4725568 Eh     change       -0.1445873E-04 Eh
 * total energy  :   -79.4725730 Eh     change       -0.1619569E-04 Eh
 * total energy  :   -79.4725800 Eh     change       -0.7021578E-05 Eh
 * total energy  :   -79.4726014 Eh     change       -0.2144514E-04 Eh
 * total energy  :   -79.4726097 Eh     change       -0.8223996E-05 Eh
 * total energy  :   -79.4726186 Eh     change       -0.8942720E-05 Eh
 * total energy  :   -79.4726244 Eh     change       -0.5791893E-05 Eh
 * total energy  :   -79.4726293 Eh     change       -0.4942448E-05 Eh
   *** GEOMETRY OPTIMIZATION CONVERGED AFTER 29 ITERATIONS ***

 final structure:
================
47
 xtb: 6.5.1 (579679a)
C           -4.67146926370854       -1.55729484403001        0.37856825524033
N           -3.33257430334305       -0.99370493520854        0.57406701857410
C           -2.94658581443444        0.22564888612839        0.07781431687423
C           -3.85806881127145        1.06725195534437       -0.80714473504781
C           -3.79205140361877        0.52007723018035       -2.24029837811804
C           -3.36366128841534        2.52508855090672       -0.79608461214919
N           -5.22881741156319        1.02541161791324       -0.32962939295426
N           -1.76039071146772        0.70495066267806        0.28258781424632
C           -0.81952178299446        0.02439497890232        0.99949256932390
C            0.47699241862316        0.75215730321896        1.14183224108712
O            0.62691582726627        1.90283484183049        0.75658343845197
N            1.48000139236203        0.06777471101956        1.74550686833088
C            2.76655974379022        0.70713502192047        1.97099670857269
C            3.69029144581462        0.40445317944196        0.83316685247530
C            4.92050561632139       -0.25535834595637        1.06513938844843
C            5.79191354458289       -0.49036591791715        0.04778466347607
C            5.39048008370142       -0.23660257406192       -1.35284023539636
C            4.98138550517310       -1.62437011196017       -1.94276007677050
F            6.44623942368911        0.18990012616906       -2.11187067736746
C            4.21216615558990        0.64252344574551       -1.51194542307100
C            3.36549983474028        0.85364295037245       -0.46998916674897
C           -1.13784562940624       -1.19542097186337        1.52239799675336
O           -0.29696927478266       -1.95316122426379        2.24811269315492
C           -2.46343467403420       -1.75945314836018        1.32808740290230
O           -2.76910186601592       -2.84734110331907        1.80712493483506
H           -5.37878576887476       -1.05025118105403        1.03336973886264
H           -4.98239425428307       -1.43480919133487       -0.65424192000958
H           -4.63139212754981       -2.61728220308618        0.62880492768004
H           -4.17507841143270       -0.49738823131159       -2.29091448311630
H           -4.38785957318885        1.14990881154680       -2.89919056332409
H           -2.75960218633784        0.52274295352342       -2.58712220898177
H           -2.35512437320942        2.58022476719830       -1.20348188204851
H           -3.35321245915472        2.90985157678668        0.22232667560648
H           -4.03039937802137        3.13581967982849       -1.40180644742589
H           -5.33999493325163        1.56743141254199        0.51526959068667
H           -5.86844121545261        1.36137952895059       -1.03339076201138
H            1.41093049533418       -0.91447555484139        1.95328870669711
H            2.59081622822064        1.78979365001360        2.01637728546572
H            3.17501836426441        0.35831825496398        2.92026664909570
H            5.18955933501405       -0.51720665635333        2.08196226579901
H            6.76304438475008       -0.93987714898893        0.21626609776391
H            4.14357564266808       -2.04274369708122       -1.39354688820590
H            4.70961082367836       -1.47917023098246       -2.98553096004635
H            5.84167954919055       -2.28606219865598       -1.87471368216548
H            4.01938645924707        1.04497943849354       -2.49917805663619
H            2.46396099302436        1.44142254785977       -0.60605924657339
H           -0.75375835124076       -2.78277761284465        2.49281169776167

          :  Hamiltonian                  GFN1-xTB          :
         :: total energy             -79.472629344023 Eh    ::
         :: gradient norm              0.000660989817 Eh/a0 ::
         :: HOMO-LUMO gap              0.134145428113 eV    ::
         :: SCC energy               -80.352708647392 Eh    ::
         :: -> Gsolv                  -0.102615355969 Eh    ::
         :: repulsion energy           0.909891610738 Eh    ::

    * Orbital Energies and Occupations

         #    Occupation            Energy/Eh            Energy/eV
      -------------------------------------------------------------
         1        2.0000           -0.8938443             -24.3227
       ...           ...                  ...                  ...
        55        2.0000           -0.5188274             -14.1180
        56        2.0000           -0.5176043             -14.0847
        57        2.0000           -0.5132716             -13.9668
        58        2.0000           -0.5078531             -13.8194
        59        2.0000           -0.5044429             -13.7266
        60        2.0000           -0.4963891             -13.5074
        61        2.0000           -0.4830648             -13.1449
        62        2.0000           -0.4775970             -12.9961
        63        2.0000           -0.4649642             -12.6523
        64        2.0000           -0.4620101             -12.5719
        65        2.0000           -0.4495385             -12.2326
        66        1.9998           -0.4335110             -11.7964
        67        1.8611           -0.4272580             -11.6263 (HOMO)
        68        0.1391           -0.4223283             -11.4921 (LUMO)
        69                         -0.3261174              -8.8741
        70                         -0.3247212              -8.8361
        71                         -0.2864098              -7.7936
        72                         -0.2525762              -6.8729
        73                         -0.2433988              -6.6232
        74                         -0.1619065              -4.4057
        75                         -0.1573056              -4.2805
        76                         -0.1513275              -4.1178
        77                         -0.1409876              -3.8365
        78                         -0.1387415              -3.7753
       ...                                ...                  ...
       144                          0.7044199              19.1682
      -------------------------------------------------------------
                  HL-Gap            0.0049298 Eh            0.1341 eV

Wiberg/Mayer (AO) data.
largest (>0.10) Wiberg bond orders for each atom

     #   Z sym  total        # sym  WBO       # sym  WBO       # sym  WBO
 ---------------------------------------------------------------------------
     1   6 C    3.913 --    27 H    0.977    28 H    0.974    26 H    0.974
                             2 N    0.924
     2   7 N    3.515 --     3 C    1.175    24 C    1.136     1 C    0.924
                            25 O    0.134
     3   6 C    3.916 --     8 N    1.561     2 N    1.175     4 C    0.973
     4   6 C    3.950 --     7 N    0.984     5 C    0.981     6 C    0.976
                             3 C    0.973
     5   6 C    3.991 --    31 H    0.985    30 H    0.982     4 C    0.981
                            29 H    0.979
     6   6 C    3.970 --    34 H    0.985    33 H    0.984    32 H    0.980
                             4 C    0.976
     7   7 N    2.932 --     4 C    0.984    35 H    0.928    36 H    0.925
     8   7 N    3.024 --     3 C    1.561     9 C    1.197
     9   6 C    3.958 --    22 C    1.497     8 N    1.197    10 C    0.999
    10   6 C    3.897 --    11 O    1.586    12 N    1.225     9 C    0.999
    11   8 O    1.901 --    10 C    1.586    12 N    0.156
    12   7 N    3.318 --    10 C    1.225    13 C    0.943    37 H    0.876
                            11 O    0.156
    13   6 C    3.950 --    14 C    1.028    39 H    0.972    12 N    0.943
                            38 H    0.932
    14   6 C    3.845 --    15 C    1.289    21 C    1.286    13 C    1.028
    15   6 C    3.987 --    16 C    1.631    14 C    1.289    40 H    0.960
    16   6 C    3.878 --    15 C    1.631    17 C    1.039    41 H    0.961
    17   6 C    3.882 --    16 C    1.039    20 C    1.039    19 F    0.897
                            18 C    0.857
    18   6 C    3.934 --    42 H    0.982    44 H    0.975    43 H    0.975
                            17 C    0.857
    19   9 F    1.005 --    17 C    0.897
    20   6 C    3.888 --    21 C    1.634    17 C    1.039    45 H    0.962
    21   6 C    3.983 --    20 C    1.634    14 C    1.286    46 H    0.954
    22   6 C    3.908 --     9 C    1.497    23 O    1.084    24 C    1.081
    23   8 O    2.072 --    22 C    1.084    47 H    0.793
    24   6 C    3.914 --    25 O    1.550     2 N    1.136    22 C    1.081
    25   8 O    1.895 --    24 C    1.550     2 N    0.134
    26   1 H    1.012 --     1 C    0.974
    27   1 H    1.016 --     1 C    0.977
    28   1 H    1.005 --     1 C    0.974
    29   1 H    1.002 --     5 C    0.979
    30   1 H    0.998 --     5 C    0.982
    31   1 H    1.002 --     5 C    0.985
    32   1 H    1.010 --     6 C    0.980
    33   1 H    1.005 --     6 C    0.984
    34   1 H    1.001 --     6 C    0.985
    35   1 H    0.945 --     7 N    0.928
    36   1 H    0.941 --     7 N    0.925
    37   1 H    0.934 --    12 N    0.876
    38   1 H    0.994 --    13 C    0.932
    39   1 H    0.996 --    13 C    0.972
    40   1 H    0.990 --    15 C    0.960
    41   1 H    0.989 --    16 C    0.961
    42   1 H    0.995 --    18 C    0.982
    43   1 H    0.993 --    18 C    0.975
    44   1 H    0.993 --    18 C    0.975
    45   1 H    0.990 --    20 C    0.962
    46   1 H    1.003 --    21 C    0.954
    47   1 H    0.838 --    23 O    0.793
 ---------------------------------------------------------------------------

           -------------------------------------------------
          | TOTAL ENERGY              -79.472629344023 Eh   |
          | GRADIENT NORM               0.000660989817 Eh/α |
          | HOMO-LUMO GAP               0.134145428113 eV   |
           -------------------------------------------------

 * finished run on 2023/06/20 at 15:31:46.388
