   * xtb version 6.5.1 (579679a) compiled by 'ehlert@majestix' on 2022-07-11
          program call               : /lustre/hpc/kemi/ree/PhD/git/ReactivityQM/dep/xtb-6.5.1/bin/xtb --gfn 1 /lustre/hpc/kemi/ree/PhD/git/ReactivityQM/calculations/RaltegravirCLI/reac02prodN13/conf05/RaltegravirCLI_reac02prodN13_conf05_gfn1.xyz --opt --vfukui --chrg 1 --uhf 0 --alpb DMSO

   ID    Z sym.   atoms
    1    6 C      1, 3-6, 9, 10, 13-17, 19-21, 23, 24
    2    7 N      2, 7, 8, 12
    3    8 O      11, 22, 25
    4    9 F      18
    5    1 H      26-47

      * Solvation model:               ALPB
        Solvent                        DMSO
        Solvent mass                       7.8130E+01 g/mol
          :  Hamiltonian                  GFN1-xTB          :
 * total energy  :   -79.4006279 Eh     change       -0.1305267E-09 Eh
 * total energy  :   -79.4203334 Eh     change       -0.1970554E-01 Eh
 * total energy  :   -79.4303607 Eh     change       -0.1002722E-01 Eh
 * total energy  :   -79.4334744 Eh     change       -0.3113702E-02 Eh
 * total energy  :   -79.4357748 Eh     change       -0.2300426E-02 Eh
 * total energy  :   -79.4367873 Eh     change       -0.1012544E-02 Eh
 * total energy  :   -79.4373390 Eh     change       -0.5516539E-03 Eh
 * total energy  :   -79.4377171 Eh     change       -0.3780806E-03 Eh
 * total energy  :   -79.4379739 Eh     change       -0.2568001E-03 Eh
 * total energy  :   -79.4381917 Eh     change       -0.2178414E-03 Eh
 * total energy  :   -79.4933221 Eh     change       -0.1732301E-04 Eh
 * total energy  :   -79.4933386 Eh     change       -0.1657194E-04 Eh
 * total energy  :   -79.4933494 Eh     change       -0.1079470E-04 Eh
 * total energy  :   -79.4933706 Eh     change       -0.2121069E-04 Eh
 * total energy  :   -79.4933904 Eh     change       -0.1975418E-04 Eh
 * total energy  :   -79.4934077 Eh     change       -0.1733599E-04 Eh
 * total energy  :   -79.4934206 Eh     change       -0.1285717E-04 Eh
 * total energy  :   -79.4934382 Eh     change       -0.1760380E-04 Eh
 * total energy  :   -79.4934423 Eh     change       -0.4107029E-05 Eh
   *** GEOMETRY OPTIMIZATION CONVERGED AFTER 82 ITERATIONS ***

 final structure:
================
47
 xtb: 6.5.1 (579679a)
C           -3.67052572094654       -0.25876127250944        1.90654161013845
N           -2.52474734429735        0.12155670745856        1.07264180169910
C           -2.32937669234572       -0.30513240443736       -0.17311818213572
C           -3.35793178199143       -0.96820436683541       -1.03615698644880
C           -3.13648966727027       -2.48983364114402       -0.92808254247099
C           -3.13416227025053       -0.51354606932941       -2.49341383595430
N           -4.69458723968329       -0.63589337817471       -0.59361918630715
N           -1.08536259742754       -0.26349288292959       -0.69257571467391
C           -0.15628557693718        0.51964235482048       -0.25909153254773
C            1.22394355589775        0.26969969736418       -0.83410529624174
O            1.43744960266418       -0.74886408129639       -1.46875031395311
N            2.12725456336830        1.23391201298837       -0.62747293308586
C            3.48512101042883        1.08339286327112       -1.15046601481032
C            4.25973016015086        0.10406101778280       -0.29497943502774
C            4.43909799049180       -1.20815037738496       -0.72363613874974
C            5.13181056966134       -2.11691689978124        0.06372083995975
C            5.62788548771722       -1.68512890760478        1.28062284897482
F            6.29534223970995       -2.55809241441229        2.04952642765103
C            5.45927220305409       -0.39068645208146        1.73964146268142
C            4.76603408118920        0.50573402210234        0.93901932797465
C           -0.54923168994686        1.58622521817079        0.71128005645703
O            0.54493921037503        2.06679270302080        1.42273387624656
C           -1.59964021781385        1.02367873881948        1.66747871111627
C           -1.26623954055634        2.73356214182389       -0.05489204780488
O           -1.72481054300826        1.39472135686624        2.79668082182762
H           -4.48586205279277        0.43848281106935        1.72440978284390
H           -3.98347020414053       -1.26585562350508        1.65402621045815
H           -3.35842123391349       -0.20159229101377        2.94817072441564
H           -2.11151610637869       -2.73844281598204       -1.19887965261077
H           -3.33514864411134       -2.82812493415149        0.08717989859267
H           -3.82164006304989       -2.98849854603038       -1.61089375421834
H           -3.87846395490534       -0.99316770688247       -3.12542419453494
H           -2.13759767187271       -0.79089526867274       -2.83349581189387
H           -3.24981849219512        0.56608690761147       -2.56597449845702
H           -5.36722623423100       -1.22721240827376       -1.06183725854875
H           -4.90456155840534        0.32504404604698       -0.82389394942881
H            1.92567904507136        2.03144874077327       -0.04818199225703
H            3.94881994104986        2.07055110122026       -1.13852831684342
H            3.41522809133921        0.72114871075592       -2.18020255171377
H            4.02827035857176       -1.52269006596695       -1.67573322771904
H            5.28166072038035       -3.13969253090769       -0.25675968819664
H            5.85858853671594       -0.09374286777967        2.70045862761839
H            4.61680474553460        1.52360217334949        1.27724161497059
H            0.26267860262608        2.60369432340377        2.17812205536968
H           -0.54811056070929        3.19780634125275       -0.72635873067716
H           -2.10549086307584        2.34233475716109       -0.62448192051823
H           -1.61889019374231        3.46943845995484        0.66414500883363

          :  Hamiltonian                  GFN1-xTB          :
         :: total energy             -79.493442302211 Eh    ::
         :: gradient norm              0.000518827450 Eh/a0 ::
         :: HOMO-LUMO gap              0.771309369198 eV    ::
         :: SCC energy               -80.387462230070 Eh    ::
         :: -> Gsolv                  -0.109322982927 Eh    ::
         :: repulsion energy           0.925238783769 Eh    ::

    * Orbital Energies and Occupations

         #    Occupation            Energy/Eh            Energy/eV
      -------------------------------------------------------------
         1        2.0000           -0.8856147             -24.0988
       ...           ...                  ...                  ...
        55        2.0000           -0.5229428             -14.2300
        56        2.0000           -0.5197931             -14.1443
        57        2.0000           -0.5188351             -14.1182
        58        2.0000           -0.5132907             -13.9674
        59        2.0000           -0.5109622             -13.9040
        60        2.0000           -0.5028828             -13.6841
        61        2.0000           -0.4967172             -13.5164
        62        2.0000           -0.4812795             -13.0963
        63        2.0000           -0.4779863             -13.0067
        64        2.0000           -0.4665552             -12.6956
        65        2.0000           -0.4586482             -12.4805
        66        2.0000           -0.4456303             -12.1262
        67        2.0000           -0.4426442             -12.0450 (HOMO)
        68        0.0000           -0.4142991             -11.2737 (LUMO)
        69                         -0.3420614              -9.3080
        70                         -0.3014317              -8.2024
        71                         -0.2807432              -7.6394
        72                         -0.2753852              -7.4936
        73                         -0.2428987              -6.6096
        74                         -0.1582133              -4.3052
        75                         -0.1568517              -4.2682
        76                         -0.1539482              -4.1891
        77                         -0.1471561              -4.0043
        78                         -0.1392668              -3.7896
       ...                                ...                  ...
       144                          0.6864147              18.6783
      -------------------------------------------------------------
                  HL-Gap            0.0283451 Eh            0.7713 eV

Wiberg/Mayer (AO) data.
largest (>0.10) Wiberg bond orders for each atom

     #   Z sym  total        # sym  WBO       # sym  WBO       # sym  WBO
 ---------------------------------------------------------------------------
     1   6 C    3.886 --    27 H    0.979    28 H    0.971    26 H    0.964
                             2 N    0.900
     2   7 N    3.547 --     3 C    1.360    23 C    1.013     1 C    0.900
     3   6 C    3.874 --     2 N    1.360     8 N    1.251     4 C    1.011
     4   6 C    3.958 --     3 C    1.011     7 N    1.001     6 C    0.955
                             5 C    0.938
     5   6 C    3.978 --    29 H    0.984    30 H    0.982    31 H    0.975
                             4 C    0.938
     6   6 C    3.984 --    34 H    0.984    33 H    0.981    32 H    0.980
                             4 C    0.955
     7   7 N    2.987 --     4 C    1.001    36 H    0.932    35 H    0.926
     8   7 N    3.142 --     9 C    1.639     3 C    1.251
     9   6 C    3.901 --     8 N    1.639    21 C    1.001    10 C    0.959
    10   6 C    3.923 --    11 O    1.587    12 N    1.300     9 C    0.959
    11   8 O    1.910 --    10 C    1.587    12 N    0.203
    12   7 N    3.417 --    10 C    1.300    13 C    0.928    37 H    0.877
                            11 O    0.203
    13   6 C    3.930 --    14 C    0.987    38 H    0.974    39 H    0.969
                            12 N    0.928
    14   6 C    3.981 --    15 C    1.420    20 C    1.417    13 C    0.987
    15   6 C    3.992 --    16 C    1.442    14 C    1.420    40 H    0.969
                            19 C    0.110
    16   6 C    3.991 --    15 C    1.442    17 C    1.401    41 H    0.969
                            20 C    0.110
    17   6 C    3.861 --    16 C    1.401    19 C    1.398    18 F    0.929
    18   9 F    1.058 --    17 C    0.929
    19   6 C    3.991 --    20 C    1.446    17 C    1.398    42 H    0.969
                            15 C    0.110
    20   6 C    3.993 --    19 C    1.446    14 C    1.417    43 H    0.971
                            16 C    0.110
    21   6 C    3.933 --     9 C    1.001    22 O    0.988    23 C    0.926
                            24 C    0.898
    22   8 O    1.928 --    21 C    0.988    44 H    0.813
    23   6 C    3.860 --    25 O    1.774     2 N    1.013    21 C    0.926
    24   6 C    3.970 --    46 H    0.984    47 H    0.977    45 H    0.976
                            21 C    0.898
    25   8 O    2.035 --    23 C    1.774
    26   1 H    1.005 --     1 C    0.964
    27   1 H    1.015 --     1 C    0.979
    28   1 H    0.999 --     1 C    0.971
    29   1 H    1.001 --     5 C    0.984
    30   1 H    0.999 --     5 C    0.982
    31   1 H    0.995 --     5 C    0.975
    32   1 H    0.998 --     6 C    0.980
    33   1 H    1.004 --     6 C    0.981
    34   1 H    0.999 --     6 C    0.984
    35   1 H    0.941 --     7 N    0.926
    36   1 H    0.947 --     7 N    0.932
    37   1 H    0.936 --    12 N    0.877
    38   1 H    1.000 --    13 C    0.974
    39   1 H    1.002 --    13 C    0.969
    40   1 H    1.007 --    15 C    0.969
    41   1 H    0.997 --    16 C    0.969
    42   1 H    0.997 --    19 C    0.969
    43   1 H    0.998 --    20 C    0.971
    44   1 H    0.834 --    22 O    0.813
    45   1 H    0.995 --    24 C    0.976
    46   1 H    0.997 --    24 C    0.984
    47   1 H    0.992 --    24 C    0.977
 ---------------------------------------------------------------------------

           -------------------------------------------------
          | TOTAL ENERGY              -79.493442302211 Eh   |
          | GRADIENT NORM               0.000518827450 Eh/α |
          | HOMO-LUMO GAP               0.771309369198 eV   |
           -------------------------------------------------

 * finished run on 2023/06/20 at 15:35:09.047
