   * xtb version 6.5.1 (579679a) compiled by 'ehlert@majestix' on 2022-07-11
          program call               : /lustre/hpc/kemi/ree/PhD/git/ReactivityQM/dep/xtb-6.5.1/bin/xtb --gfn 1 /lustre/hpc/kemi/ree/PhD/git/ReactivityQM/calculations/R03/reac01prodE04/conf10/R03_reac01prodE04_conf10_gfn1.xyz --opt --vfukui --chrg -1 --uhf 0 --alpb DMSO

   ID    Z sym.   atoms
    1    6 C      1, 2, 4-7, 9, 10
    2    9 F      3
    3    7 N      8
    4    1 H      11-21

      * Solvation model:               ALPB
        Solvent                        DMSO
        Solvent mass                       7.8130E+01 g/mol
          :  Hamiltonian                  GFN1-xTB          :
 * total energy  :   -31.4694326 Eh     change       -0.1764278E-10 Eh
 * total energy  :   -31.4755725 Eh     change       -0.6139861E-02 Eh
 * total energy  :   -31.4787456 Eh     change       -0.3173119E-02 Eh
 * total energy  :   -31.4807610 Eh     change       -0.2015401E-02 Eh
 * total energy  :   -31.4834648 Eh     change       -0.2703790E-02 Eh
 * total energy  :   -31.4893259 Eh     change       -0.5861125E-02 Eh
 * total energy  :   -31.4961357 Eh     change       -0.6809754E-02 Eh
 * total energy  :   -31.4997549 Eh     change       -0.3619208E-02 Eh
 * total energy  :   -31.5019148 Eh     change       -0.2159908E-02 Eh
 * total energy  :   -31.5041005 Eh     change       -0.2185743E-02 Eh
 * total energy  :   -31.5129867 Eh     change       -0.7773858E-05 Eh
 * total energy  :   -31.5130040 Eh     change       -0.1728803E-04 Eh
 * total energy  :   -31.5130276 Eh     change       -0.2361866E-04 Eh
 * total energy  :   -31.5130586 Eh     change       -0.3097938E-04 Eh
 * total energy  :   -31.5130763 Eh     change       -0.1774917E-04 Eh
 * total energy  :   -31.5130885 Eh     change       -0.1216278E-04 Eh
 * total energy  :   -31.5130982 Eh     change       -0.9751229E-05 Eh
 * total energy  :   -31.5131037 Eh     change       -0.5420431E-05 Eh
 * total energy  :   -31.5131055 Eh     change       -0.1829463E-05 Eh
   *** GEOMETRY OPTIMIZATION CONVERGED AFTER 72 ITERATIONS ***

 final structure:
================
21
 xtb: 6.5.1 (579679a)
C            3.06337044590700       -0.54176704634372       -0.16823829002730
C            1.57379444727854       -0.36697516359581       -0.20714955213910
F            4.12173933505283        0.28140566400240        2.58952199309354
C            1.01192855506400        0.90687519715762       -0.30587557389159
C           -0.36328251411329        1.07587639942894       -0.32661009290046
C           -1.21671448190862       -0.02313567804026       -0.24919557079980
C           -2.71432216866378        0.16920506739835       -0.31103555257946
N           -3.11714747326949        1.39125693000205        0.39167317913566
C           -0.66102831591928       -1.29489278599591       -0.15003460357725
C            0.71738470559640       -1.46352330429773       -0.12865320746166
H            3.54605838640332        0.09992397480998       -0.90672447598617
H            3.44817860345087       -0.26267224442642        0.82550901399273
H            3.34033047029830       -1.57726310586632       -0.36659479656284
H            1.65730256254561        1.77772052683362       -0.37588576829239
H           -0.78928114546794        2.07186974498634       -0.40150468899474
H           -3.01470549469278        0.27411715361946       -1.36070925333193
H           -3.23047761253076       -0.71318854703084        0.09528925222560
H           -4.06325225289810        1.61453779812845        0.12230141598300
H           -3.12857233879682        1.21060505076325        1.38714144063690
H           -1.30850500413481       -2.16370553914175       -0.09501830364466
H            1.12720329078156       -2.46626909239341       -0.05820456489503

          :  Hamiltonian                  GFN1-xTB          :
         :: total energy             -31.513105483062 Eh    ::
         :: gradient norm              0.000163359966 Eh/a0 ::
         :: HOMO-LUMO gap              2.439136128680 eV    ::
         :: SCC energy               -31.916368142932 Eh    ::
         :: -> Gsolv                  -0.130497624671 Eh    ::
         :: repulsion energy           0.412830225078 Eh    ::

    * Orbital Energies and Occupations

         #    Occupation            Energy/Eh            Energy/eV
      -------------------------------------------------------------
         1        2.0000           -0.7378074             -20.0768
       ...           ...                  ...                  ...
        16        2.0000           -0.5069707             -13.7954
        17        2.0000           -0.4982882             -13.5591
        18        2.0000           -0.4849328             -13.1957
        19        2.0000           -0.4778078             -13.0018
        20        2.0000           -0.4683826             -12.7453
        21        2.0000           -0.4481848             -12.1957
        22        2.0000           -0.4464545             -12.1486
        23        2.0000           -0.4202995             -11.4369
        24        2.0000           -0.4048676             -11.0170
        25        2.0000           -0.3960790             -10.7779
        26        2.0000           -0.3321627              -9.0386
        27        2.0000           -0.3321600              -9.0385
        28        2.0000           -0.3317458              -9.0273 (HOMO)
        29                         -0.2421092              -6.5881 (LUMO)
        30                         -0.2377752              -6.4702
        31                         -0.1181394              -3.2147
        32                         -0.1060947              -2.8870
        33                         -0.0985873              -2.6827
        34                         -0.0892206              -2.4278
        35                         -0.0853246              -2.3218
        36                         -0.0778193              -2.1176
        37                         -0.0727906              -1.9807
        38                         -0.0558847              -1.5207
        39                         -0.0466160              -1.2685
       ...                                ...                  ...
        62                          0.6646755              18.0867
      -------------------------------------------------------------
                  HL-Gap            0.0896366 Eh            2.4391 eV

Wiberg/Mayer (AO) data.
largest (>0.10) Wiberg bond orders for each atom

     #   Z sym  total        # sym  WBO       # sym  WBO       # sym  WBO
 ---------------------------------------------------------------------------
     1   6 C    3.989 --     2 C    1.029    13 H    0.986    11 H    0.980
                            12 H    0.933
     2   6 C    3.988 --    10 C    1.412     4 C    1.401     1 C    1.029
                             6 C    0.106
     3   9 F    0.095
     4   6 C    3.996 --     5 C    1.459     2 C    1.401    14 H    0.974
                             9 C    0.108
     5   6 C    3.996 --     4 C    1.459     6 C    1.407    15 H    0.972
                            10 C    0.108
     6   6 C    3.988 --     9 C    1.419     5 C    1.407     7 C    1.004
                             2 C    0.106
     7   6 C    3.979 --     6 C    1.004     8 N    0.992    17 H    0.974
                            16 H    0.969
     8   7 N    2.947 --     7 C    0.992    19 H    0.951    18 H    0.948
     9   6 C    3.995 --    10 C    1.445     6 C    1.419    20 H    0.973
                             4 C    0.108
    10   6 C    3.995 --     9 C    1.445     2 C    1.412    21 H    0.973
                             5 C    0.108
    11   1 H    1.007 --     1 C    0.980
    12   1 H    1.039 --     1 C    0.933
    13   1 H    1.006 --     1 C    0.986
    14   1 H    1.003 --     4 C    0.974
    15   1 H    1.016 --     5 C    0.972
    16   1 H    1.013 --     7 C    0.969
    17   1 H    1.005 --     7 C    0.974
    18   1 H    0.962 --     8 N    0.948
    19   1 H    0.965 --     8 N    0.951
    20   1 H    1.003 --     9 C    0.973
    21   1 H    1.004 --    10 C    0.973
 ---------------------------------------------------------------------------

           -------------------------------------------------
          | TOTAL ENERGY              -31.513105483062 Eh   |
          | GRADIENT NORM               0.000163359966 Eh/α |
          | HOMO-LUMO GAP               2.439136128680 eV   |
           -------------------------------------------------

 * finished run on 2023/06/20 at 15:13:48.607
