   * xtb version 6.5.1 (579679a) compiled by 'ehlert@majestix' on 2022-07-11
          program call               : /lustre/hpc/kemi/ree/PhD/git/ReactivityQM/dep/xtb-6.5.1/bin/xtb --gfn 1 /lustre/hpc/kemi/ree/PhD/git/ReactivityQM/calculations/R03/reac01prodN05/conf05/R03_reac01prodN05_conf05_gfn1.xyz --opt --vfukui --chrg 1 --uhf 0 --alpb DMSO

   ID    Z sym.   atoms
    1    6 C      1, 2, 4-7, 9, 10
    2    9 F      3
    3    7 N      8
    4    1 H      11-21

      * Solvation model:               ALPB
        Solvent                        DMSO
        Solvent mass                       7.8130E+01 g/mol
          :  Hamiltonian                  GFN1-xTB          :
 * total energy  :   -30.7511624 Eh     change       -0.1207923E-10 Eh
 * total energy  :   -30.7551052 Eh     change       -0.3942722E-02 Eh
 * total energy  :   -30.7570158 Eh     change       -0.1910642E-02 Eh
 * total energy  :   -30.7579194 Eh     change       -0.9035497E-03 Eh
 * total energy  :   -30.7588792 Eh     change       -0.9598414E-03 Eh
 * total energy  :   -30.7595925 Eh     change       -0.7132956E-03 Eh
 * total energy  :   -30.7601646 Eh     change       -0.5720917E-03 Eh
 * total energy  :   -30.7606685 Eh     change       -0.5038977E-03 Eh
 * total energy  :   -30.7610848 Eh     change       -0.4163681E-03 Eh
 * total energy  :   -30.7614055 Eh     change       -0.3206022E-03 Eh
 * total energy  :   -30.7621591 Eh     change       -0.1498389E-04 Eh
 * total energy  :   -30.7621839 Eh     change       -0.2478616E-04 Eh
 * total energy  :   -30.7621996 Eh     change       -0.1570118E-04 Eh
 * total energy  :   -30.7622117 Eh     change       -0.1217520E-04 Eh
 * total energy  :   -30.7622257 Eh     change       -0.1398409E-04 Eh
 * total energy  :   -30.7622372 Eh     change       -0.1146163E-04 Eh
 * total energy  :   -30.7622424 Eh     change       -0.5217411E-05 Eh
 * total energy  :   -30.7622487 Eh     change       -0.6354151E-05 Eh
 * total energy  :   -30.7622530 Eh     change       -0.4222839E-05 Eh
   *** GEOMETRY OPTIMIZATION CONVERGED AFTER 26 ITERATIONS ***

 final structure:
================
21
 xtb: 6.5.1 (579679a)
C           -2.63976278761589       -0.72540343822241        0.05138120320253
C           -1.79537076246186        0.51077712209470        0.49739664536072
F           -2.67192509454776        1.35369247192667        1.12218036827141
C           -0.77622802217824       -0.01762337071281        1.43192247717082
C            0.48364252455622       -0.27200541095452        0.99998726931610
C            0.90241288178564        0.10849343721515       -0.30173012834763
C            2.27991012300512       -0.15581799176618       -0.76171502147807
N            3.16199497870379       -0.61289409288393        0.27844170704346
C            0.00801120572338        0.81572491678114       -1.14842443655859
C           -1.25401323230738        1.10467572563374       -0.74408212733967
H           -2.01288696370118       -1.45708294364082       -0.44957741081416
H           -3.41777096586095       -0.37559785540299       -0.62344579906993
H           -3.09205249969566       -1.16377886909079        0.93815965875013
H           -1.10452486494756       -0.27440406712817        2.43233217849516
H            1.20996649619749       -0.74402526221280        1.65198349300292
H            2.22351325510691       -0.92150058233188       -1.54725096908983
H            2.67264241769483        0.74451219674594       -1.26054732496590
H            4.03572747475504       -0.91843167217322       -0.12146495600552
H            3.33886641521830        0.11549335118620        0.95329539800085
H            0.37481130190542        1.18259591115440       -2.10013530018610
H           -1.92696388133574        1.70260042378222       -1.34667792475897

          :  Hamiltonian                  GFN1-xTB          :
         :: total energy             -30.762252971484 Eh    ::
         :: gradient norm              0.000528457735 Eh/a0 ::
         :: HOMO-LUMO gap              0.719743813565 eV    ::
         :: SCC energy               -31.154196628765 Eh    ::
         :: -> Gsolv                  -0.085329074856 Eh    ::
         :: repulsion energy           0.401986688035 Eh    ::

    * Orbital Energies and Occupations

         #    Occupation            Energy/Eh            Energy/eV
      -------------------------------------------------------------
         1        2.0000           -0.8942691             -24.3343
       ...           ...                  ...                  ...
        15        2.0000           -0.5978653             -16.2687
        16        2.0000           -0.5924632             -16.1217
        17        2.0000           -0.5778932             -15.7253
        18        2.0000           -0.5698044             -15.5052
        19        2.0000           -0.5646437             -15.3647
        20        2.0000           -0.5630852             -15.3223
        21        2.0000           -0.5544138             -15.0864
        22        2.0000           -0.5507915             -14.9878
        23        2.0000           -0.5319743             -14.4758
        24        2.0000           -0.5216994             -14.1962
        25        2.0000           -0.5189324             -14.1209
        26        2.0000           -0.5090525             -13.8520
        27        2.0000           -0.4460867             -12.1386 (HOMO)
        28        0.0000           -0.4196366             -11.4189 (LUMO)
        29                         -0.3250411              -8.8448
        30                         -0.2514524              -6.8424
        31                         -0.1592178              -4.3325
        32                         -0.1559103              -4.2425
        33                         -0.1423107              -3.8725
        34                         -0.1359208              -3.6986
        35                         -0.1279195              -3.4809
        36                         -0.1182089              -3.2166
        37                         -0.1094417              -2.9781
        38                         -0.0981970              -2.6721
       ...                                ...                  ...
        62                          0.5467977              14.8791
      -------------------------------------------------------------
                  HL-Gap            0.0264501 Eh            0.7197 eV

Wiberg/Mayer (AO) data.
largest (>0.10) Wiberg bond orders for each atom

     #   Z sym  total        # sym  WBO       # sym  WBO       # sym  WBO
 ---------------------------------------------------------------------------
     1   6 C    3.947 --    11 H    0.982    13 H    0.975    12 H    0.974
                             2 C    0.859
     2   6 C    3.887 --    10 C    1.038     4 C    1.035     3 F    0.899
                             1 C    0.859
     3   9 F    1.008 --     2 C    0.899
     4   6 C    3.954 --     5 C    1.657     2 C    1.035    14 H    0.961
     5   6 C    3.985 --     4 C    1.657     6 C    1.265    15 H    0.956
     6   6 C    3.926 --     5 C    1.265     9 C    1.264     7 C    1.080
     7   6 C    3.981 --     6 C    1.080     8 N    1.023    17 H    0.904
                            16 H    0.902
     8   7 N    3.040 --     7 C    1.023    19 H    0.923    18 H    0.921
     9   6 C    3.987 --    10 C    1.658     6 C    1.264    20 H    0.961
    10   6 C    3.956 --     9 C    1.658     2 C    1.038    21 H    0.961
    11   1 H    0.995 --     1 C    0.982
    12   1 H    0.993 --     1 C    0.974
    13   1 H    0.993 --     1 C    0.975
    14   1 H    0.989 --     4 C    0.961
    15   1 H    1.001 --     5 C    0.956
    16   1 H    0.992 --     7 C    0.902
    17   1 H    0.982 --     7 C    0.904
    18   1 H    0.936 --     8 N    0.921
    19   1 H    0.941 --     8 N    0.923
    20   1 H    0.989 --     9 C    0.961
    21   1 H    0.988 --    10 C    0.961
 ---------------------------------------------------------------------------

           -------------------------------------------------
          | TOTAL ENERGY              -30.762252971484 Eh   |
          | GRADIENT NORM               0.000528457735 Eh/α |
          | HOMO-LUMO GAP               0.719743813565 eV   |
           -------------------------------------------------

 * finished run on 2023/06/20 at 15:14:35.207
