   * xtb version 6.5.1 (579679a) compiled by 'ehlert@majestix' on 2022-07-11
          program call               : /lustre/hpc/kemi/ree/PhD/git/ReactivityQM/dep/xtb-6.5.1/bin/xtb --gfn 1 /lustre/hpc/kemi/ree/PhD/git/ReactivityQM/calculations/R02methylcation/reac01prodN03/conf20/R02methylcation_reac01prodN03_conf20_gfn1.xyz --opt --vfukui --chrg 0 --uhf 0 --alpb DMSO

   ID    Z sym.   atoms
    1    6 C      1, 3, 5, 6, 8-11, 13, 15, 18, 19, 22, 24
    2    8 O      2, 4, 14, 20, 23, 25
    3    7 N      7, 12, 16, 17, 21
    4    1 H      26-42

      * Solvation model:               ALPB
        Solvent                        DMSO
        Solvent mass                       7.8130E+01 g/mol
          :  Hamiltonian                  GFN1-xTB          :
 * total energy  :   -82.9866861 Eh     change       -0.8583356E-11 Eh
 * total energy  :   -82.9977859 Eh     change       -0.1109975E-01 Eh
 * total energy  :   -83.0018926 Eh     change       -0.4106778E-02 Eh
 * total energy  :   -83.0028071 Eh     change       -0.9144839E-03 Eh
 * total energy  :   -83.0036181 Eh     change       -0.8109787E-03 Eh
 * total energy  :   -83.0041026 Eh     change       -0.4844782E-03 Eh
 * total energy  :   -83.0045218 Eh     change       -0.4191989E-03 Eh
 * total energy  :   -83.0048451 Eh     change       -0.3233608E-03 Eh
 * total energy  :   -83.0050642 Eh     change       -0.2190857E-03 Eh
 * total energy  :   -83.0052027 Eh     change       -0.1385063E-03 Eh
 * total energy  :   -83.0059739 Eh     change       -0.2302782E-04 Eh
 * total energy  :   -83.0057924 Eh     change        0.1815391E-03 Eh
 * total energy  :   -83.0060377 Eh     change       -0.2453189E-03 Eh
 * total energy  :   -83.0060541 Eh     change       -0.1641333E-04 Eh
 * total energy  :   -83.0060733 Eh     change       -0.1916014E-04 Eh
 * total energy  :   -83.0060847 Eh     change       -0.1137877E-04 Eh
 * total energy  :   -83.0060882 Eh     change       -0.3525472E-05 Eh
 * total energy  :   -83.0060978 Eh     change       -0.9552929E-05 Eh
 * total energy  :   -83.0061009 Eh     change       -0.3164368E-05 Eh
   *** GEOMETRY OPTIMIZATION CONVERGED AFTER 42 ITERATIONS ***

 final structure:
================
42
 xtb: 6.5.1 (579679a)
C           -5.95815638436836        0.36748364857359        0.94201076898101
O           -4.83483379024359        0.94522125150427        0.25801592629688
C           -3.68166321349607        0.32038075539709        0.36752165484303
O           -3.49861010664582       -0.69934855762879        0.97734849271586
C           -2.55561689247450        1.03784724558702       -0.43170870958229
C           -2.86607989834099        2.51758591050367       -0.65258314843891
N           -1.35916554135519        0.90175331355016        0.36663029216861
C           -0.61386650051968       -0.11814467908557        0.24620945463022
C            0.55812634131060       -0.29162760192692        1.20209656912425
C            0.69158741727074        0.96154542496417        2.06867630856709
C            0.32228219122858       -1.52011516385600        2.09029748863090
N            1.81558751541897       -0.41995612452020        0.45298780837894
C            2.23475047491575       -1.50206344029946       -0.22879988574032
O            1.58078824344731       -2.51628294656464       -0.43444650946005
C            3.60961279301091       -1.34446135969849       -0.75843849428032
N            4.26692271637296       -2.16317543493219       -1.51943060307331
N            5.48240987369565       -1.59523741064522       -1.75115440664218
C            5.49480206262853       -0.46442369704015       -1.11610511785890
C            6.59189871531337        0.52390618855486       -1.04001648405255
O            4.33840848149790       -0.24423192188318       -0.46942154067312
N           -0.81868425585961       -1.11792067337011       -0.68889593997090
C           -1.68382080089405       -1.02045313763311       -1.73167121671044
O           -1.78083107085241       -1.86879442130845       -2.59122912232790
C           -2.51356144821515        0.26981309847675       -1.74165907414010
O           -3.12293046468068        0.61776805098751       -2.71925216508968
H           -5.75465397869780        0.32528536374638        2.01333984853314
H           -6.14408501731847       -0.63958419186324        0.56372231094700
H           -6.80675703947540        1.01656419815072        0.74003954977911
H           -2.01317325448214        2.99266599433129       -1.13334896588828
H           -3.05055814933461        3.00116508042455        0.30355047643857
H           -3.74212424513426        2.62353834189427       -1.28953897930588
H            0.85297296354410        1.83790616450002        1.44320694782136
H           -0.22119992834689        1.10920657430801        2.64301609301473
H            1.52941937652809        0.84985214328251        2.75361129505227
H            0.20972270082510       -2.42508768750745        1.49736909407312
H           -0.58402265185965       -1.36618266066963        2.67428731506534
H            1.16558132040578       -1.64332990280920        2.76717138460533
H            2.46402121506567        0.34413264801489        0.55433566436273
H            6.21848783482993        1.51457690363935       -1.29672802119628
H            6.98104092640382        0.56565126637141       -0.02232843963687
H            7.39063475519208        0.24113451137338       -1.72170719423765
H           -0.19466028631079       -1.92456206489942       -0.67046372572210

          :  Hamiltonian                  GFN1-xTB          :
         :: total energy             -83.006100918058 Eh    ::
         :: gradient norm              0.000329299187 Eh/a0 ::
         :: HOMO-LUMO gap              2.378220963430 eV    ::
         :: SCC energy               -83.791530521071 Eh    ::
         :: -> Gsolv                  -0.056069608704 Eh    ::
         :: repulsion energy           0.812217428375 Eh    ::

    * Orbital Energies and Occupations

         #    Occupation            Energy/Eh            Energy/eV
      -------------------------------------------------------------
         1        2.0000           -0.8682166             -23.6254
       ...           ...                  ...                  ...
        55        2.0000           -0.5110295             -13.9058
        56        2.0000           -0.5084740             -13.8363
        57        2.0000           -0.5076415             -13.8136
        58        2.0000           -0.5033508             -13.6969
        59        2.0000           -0.4901078             -13.3365
        60        2.0000           -0.4827574             -13.1365
        61        2.0000           -0.4738116             -12.8931
        62        2.0000           -0.4699996             -12.7893
        63        2.0000           -0.4611245             -12.5478
        64        2.0000           -0.4555713             -12.3967
        65        2.0000           -0.4550373             -12.3822
        66        2.0000           -0.4503930             -12.2558
        67        2.0000           -0.4374578             -11.9038 (HOMO)
        68                         -0.3500598              -9.5256 (LUMO)
        69                         -0.3157514              -8.5920
        70                         -0.2954685              -8.0401
        71                         -0.2685460              -7.3075
        72                         -0.2588448              -7.0435
        73                         -0.2209178              -6.0115
        74                         -0.2035833              -5.5398
        75                         -0.1466376              -3.9902
        76                         -0.1428135              -3.8862
        77                         -0.1293747              -3.5205
        78                         -0.1256852              -3.4201
       ...                                ...                  ...
       134                          0.7594897              20.6668
      -------------------------------------------------------------
                  HL-Gap            0.0873980 Eh            2.3782 eV

Wiberg/Mayer (AO) data.
largest (>0.10) Wiberg bond orders for each atom

     #   Z sym  total        # sym  WBO       # sym  WBO       # sym  WBO
 ---------------------------------------------------------------------------
     1   6 C    3.853 --    28 H    0.985    26 H    0.980    27 H    0.980
                             2 O    0.875
     2   8 O    2.230 --     3 C    1.156     1 C    0.875     4 O    0.139
     3   6 C    3.845 --     4 O    1.695     2 O    1.156     5 C    0.866
     4   8 O    1.963 --     3 C    1.695     2 O    0.139
     5   6 C    3.964 --     6 C    0.983     7 N    0.980    24 C    0.947
                             3 C    0.866
     6   6 C    3.985 --    30 H    0.985    29 H    0.984     5 C    0.983
                            31 H    0.983
     7   7 N    3.026 --     8 C    1.752     5 C    0.980
     8   6 C    3.928 --     7 N    1.752    21 N    1.083     9 C    0.967
     9   6 C    3.933 --    10 C    1.001    11 C    0.981     8 C    0.967
                            12 N    0.919
    10   6 C    3.990 --     9 C    1.001    34 H    0.984    32 H    0.983
                            33 H    0.982
    11   6 C    3.987 --    36 H    0.984    37 H    0.983     9 C    0.981
                            35 H    0.979
    12   7 N    3.353 --    13 C    1.272     9 C    0.919    38 H    0.891
                            14 O    0.174
    13   6 C    3.915 --    14 O    1.557    12 N    1.272    15 C    0.998
    14   8 O    1.916 --    13 C    1.557    12 N    0.174
    15   6 C    3.874 --    16 N    1.620    20 O    1.046    13 C    0.998
    16   7 N    3.001 --    15 C    1.620    17 N    1.201
    17   7 N    2.982 --    18 C    1.608    16 N    1.201
    18   6 C    3.867 --    17 N    1.608    20 O    1.073    19 C    1.032
    19   6 C    3.986 --    18 C    1.032    41 H    0.982    39 H    0.966
                            40 H    0.959
    20   8 O    2.317 --    18 C    1.073    15 C    1.046
    21   7 N    3.439 --    22 C    1.200     8 C    1.083    42 H    0.843
                            23 O    0.150
    22   6 C    3.897 --    23 O    1.662    21 N    1.200    24 C    0.907
    23   8 O    1.949 --    22 C    1.662    21 N    0.150
    24   6 C    3.845 --    25 O    1.809     5 C    0.947    22 C    0.907
    25   8 O    2.023 --    24 C    1.809
    26   1 H    1.004 --     1 C    0.980
    27   1 H    1.004 --     1 C    0.980
    28   1 H    1.008 --     1 C    0.985
    29   1 H    1.001 --     6 C    0.984
    30   1 H    1.003 --     6 C    0.985
    31   1 H    1.008 --     6 C    0.983
    32   1 H    1.003 --    10 C    0.983
    33   1 H    1.008 --    10 C    0.982
    34   1 H    0.998 --    10 C    0.984
    35   1 H    1.007 --    11 C    0.979
    36   1 H    1.001 --    11 C    0.984
    37   1 H    0.999 --    11 C    0.983
    38   1 H    0.935 --    12 N    0.891
    39   1 H    0.996 --    19 C    0.966
    40   1 H    0.996 --    19 C    0.959
    41   1 H    0.998 --    19 C    0.982
    42   1 H    0.929 --    21 N    0.843
 ---------------------------------------------------------------------------

           -------------------------------------------------
          | TOTAL ENERGY              -83.006100918058 Eh   |
          | GRADIENT NORM               0.000329299187 Eh/α |
          | HOMO-LUMO GAP               2.378220963430 eV   |
           -------------------------------------------------

 * finished run on 2023/06/21 at 17:32:47.516
