   * xtb version 6.5.1 (579679a) compiled by 'ehlert@majestix' on 2022-07-11
          program call               : /lustre/hpc/kemi/ree/PhD/git/ReactivityQM/dep/xtb-6.5.1/bin/xtb --gfn 1 /lustre/hpc/kemi/ree/PhD/git/ReactivityQM/calculations/R02oxygendeprot/reac01prodN08/conf17/R02oxygendeprot_reac01prodN08_conf17_gfn1.xyz --opt --vfukui --chrg 0 --uhf 0 --alpb DMSO

   ID    Z sym.   atoms
    1    6 C      1, 3, 5, 7-10, 12, 14, 17, 18, 21, 23, 25
    2    8 O      2, 4, 13, 19, 22, 24
    3    7 N      6, 11, 15, 16, 20
    4    1 H      26-42

      * Solvation model:               ALPB
        Solvent                        DMSO
        Solvent mass                       7.8130E+01 g/mol
          :  Hamiltonian                  GFN1-xTB          :
 * total energy  :   -82.9995826 Eh     change       -0.1135447E-10 Eh
 * total energy  :   -83.0129084 Eh     change       -0.1332582E-01 Eh
 * total energy  :   -83.0171192 Eh     change       -0.4210805E-02 Eh
 * total energy  :   -83.0181477 Eh     change       -0.1028411E-02 Eh
 * total energy  :   -83.0188471 Eh     change       -0.6994346E-03 Eh
 * total energy  :   -83.0192700 Eh     change       -0.4228985E-03 Eh
 * total energy  :   -83.0195893 Eh     change       -0.3192694E-03 Eh
 * total energy  :   -83.0198000 Eh     change       -0.2107029E-03 Eh
 * total energy  :   -83.0199287 Eh     change       -0.1287253E-03 Eh
 * total energy  :   -83.0199873 Eh     change       -0.5866222E-04 Eh
 * total energy  :   -83.0205141 Eh     change       -0.1374110E-04 Eh
 * total energy  :   -83.0205294 Eh     change       -0.1525717E-04 Eh
 * total energy  :   -83.0205454 Eh     change       -0.1604337E-04 Eh
 * total energy  :   -83.0205655 Eh     change       -0.2011092E-04 Eh
 * total energy  :   -83.0205727 Eh     change       -0.7230628E-05 Eh
 * total energy  :   -83.0205789 Eh     change       -0.6171486E-05 Eh
 * total energy  :   -83.0205850 Eh     change       -0.6116760E-05 Eh
 * total energy  :   -83.0205912 Eh     change       -0.6143897E-05 Eh
 * total energy  :   -83.0205960 Eh     change       -0.4790034E-05 Eh
   *** GEOMETRY OPTIMIZATION CONVERGED AFTER 38 ITERATIONS ***

 final structure:
================
42
 xtb: 6.5.1 (579679a)
C           -4.99523986060500        2.51505359112879        1.24297625632165
O           -3.83168367497800        1.70956624581777        1.04053523044214
C           -3.93737565806450        0.73549392512741        0.13170211803164
O           -4.95360292903042        0.52659570451276       -0.48930305769228
C           -2.66507640519281       -0.03411098456748       -0.00439005305925
N           -1.64745653053651        0.37691118987037        0.81592069841299
C           -0.50988987454850       -0.22465280979905        0.76766440593108
C            0.60834499921909        0.18856398157849        1.69909285052613
C            0.68327971039462       -0.84336210381220        2.83553094101436
C            0.34387686682387        1.59611618033382        2.24157828793419
N            1.85609423815774        0.17409258234279        0.92664687793288
C            3.06379153940974        0.44261552731360        1.47228365320374
O            3.27711492357866        0.65085496116970        2.65406563458400
C            4.15102726021958        0.44304564710054        0.46225034786510
N            5.41215535508139        0.67799408540511        0.65127949637246
N            6.02008341119553        0.56511055716115       -0.56250064586884
C            5.09287956430736        0.26815662630824       -1.41920910604192
C            5.24008412876598        0.03254049346767       -2.87178540571792
O            3.88628814584142        0.17742605508881       -0.83600039580645
N           -0.29313390208134       -1.28168403290009       -0.06574164428690
C           -1.22985089181977       -1.78865511484062       -0.94373198090463
O           -0.94393724616612       -2.73985175907542       -1.65570971655304
C           -2.51216529095606       -1.07967974365626       -0.89031836015222
O           -3.54020006097760       -1.42466113454291       -1.67339862566396
C           -3.46265279043566       -2.46809211779811       -2.64472163671404
H           -5.83927217708949        1.89031329010009        1.54511572070099
H           -5.25030233436410        3.04496191743657        0.32187339678700
H           -4.75014503312491        3.22573665736780        2.02953616339775
H           -0.28362013844631       -0.90147421995796        3.33307331599965
H            1.43945876064844       -0.55118011277810        3.56149730068687
H            0.93493506576005       -1.82189454752216        2.43102945328656
H           -0.61209204786139        1.60736145277445        2.76261829936521
H            0.30503037295672        2.30849907985296        1.41886956075757
H            1.13369136147536        1.88444453415936        2.93249924428329
H            1.79225990272192        0.13220980707526       -0.07670815785169
H            5.00644050862963       -1.00733116473787       -3.10400413506257
H            6.26062258372550        0.25223529763152       -3.17821213917217
H            4.54346981220543        0.66418564914518       -3.42243747293559
H            0.60296398277806       -1.74504834983588       -0.07321819305330
H           -2.68468584928926       -2.26115630002568       -3.38261640733047
H           -3.27383351494564       -3.43393439380498       -2.17083675056997
H           -4.43767728336735       -2.48331414961611       -3.13376236940022

          :  Hamiltonian                  GFN1-xTB          :
         :: total energy             -83.020595959520 Eh    ::
         :: gradient norm              0.000937975713 Eh/a0 ::
         :: HOMO-LUMO gap              2.756231144774 eV    ::
         :: SCC energy               -83.804684080541 Eh    ::
         :: -> Gsolv                  -0.057452654591 Eh    ::
         :: repulsion energy           0.809070600056 Eh    ::

    * Orbital Energies and Occupations

         #    Occupation            Energy/Eh            Energy/eV
      -------------------------------------------------------------
         1        2.0000           -0.8661365             -23.5688
       ...           ...                  ...                  ...
        55        2.0000           -0.5054728             -13.7546
        56        2.0000           -0.5021289             -13.6636
        57        2.0000           -0.4960244             -13.4975
        58        2.0000           -0.4850400             -13.1986
        59        2.0000           -0.4832661             -13.1503
        60        2.0000           -0.4803929             -13.0722
        61        2.0000           -0.4672750             -12.7152
        62        2.0000           -0.4617856             -12.5658
        63        2.0000           -0.4576132             -12.4523
        64        2.0000           -0.4521851             -12.3046
        65        2.0000           -0.4501926             -12.2504
        66        2.0000           -0.4472498             -12.1703
        67        2.0000           -0.4270407             -11.6204 (HOMO)
        68                         -0.3257510              -8.8641 (LUMO)
        69                         -0.3120645              -8.4917
        70                         -0.2855031              -7.7689
        71                         -0.2570771              -6.9954
        72                         -0.2407127              -6.5501
        73                         -0.1997640              -5.4359
        74                         -0.1614085              -4.3921
        75                         -0.1418682              -3.8604
        76                         -0.1374252              -3.7395
        77                         -0.1309763              -3.5640
        78                         -0.1283879              -3.4936
       ...                                ...                  ...
       134                          0.7342582              19.9802
      -------------------------------------------------------------
                  HL-Gap            0.1012896 Eh            2.7562 eV

Wiberg/Mayer (AO) data.
largest (>0.10) Wiberg bond orders for each atom

     #   Z sym  total        # sym  WBO       # sym  WBO       # sym  WBO
 ---------------------------------------------------------------------------
     1   6 C    3.873 --    28 H    0.986    26 H    0.979    27 H    0.979
                             2 O    0.900
     2   8 O    2.196 --     3 C    1.107     1 C    0.900     4 O    0.134
     3   6 C    3.852 --     4 O    1.660     2 O    1.107     5 C    1.003
     4   8 O    1.923 --     3 C    1.660     2 O    0.134
     5   6 C    3.963 --    23 C    1.478     6 N    1.186     3 C    1.003
     6   7 N    3.028 --     7 C    1.587     5 C    1.186
     7   6 C    3.931 --     6 N    1.587    20 N    1.168     8 C    0.982
     8   6 C    3.934 --    10 C    0.991     7 C    0.982     9 C    0.975
                            11 N    0.923
     9   6 C    3.987 --    29 H    0.985    31 H    0.985    30 H    0.977
                             8 C    0.975
    10   6 C    3.988 --     8 C    0.991    33 H    0.985    32 H    0.983
                            34 H    0.982
    11   7 N    3.337 --    12 C    1.247     8 C    0.923    35 H    0.893
                            13 O    0.174
    12   6 C    3.915 --    13 O    1.592    11 N    1.247    14 C    0.993
    13   8 O    1.908 --    12 C    1.592    11 N    0.174
    14   6 C    3.872 --    15 N    1.622    19 O    1.046    12 C    0.993
    15   7 N    3.000 --    14 C    1.622    16 N    1.199
    16   7 N    2.982 --    17 C    1.610    15 N    1.199
    17   6 C    3.868 --    16 N    1.610    19 O    1.072    18 C    1.032
    18   6 C    3.986 --    17 C    1.032    37 H    0.982    38 H    0.965
                            36 H    0.960
    19   8 O    2.316 --    17 C    1.072    14 C    1.046
    20   7 N    3.464 --     7 C    1.168    21 C    1.127    39 H    0.882
                            22 O    0.132
    21   6 C    3.909 --    22 O    1.579    20 N    1.127    23 C    1.065
    22   8 O    1.904 --    21 C    1.579    20 N    0.132
    23   6 C    3.919 --     5 C    1.478    24 O    1.104    21 C    1.065
    24   8 O    2.201 --    23 C    1.104    25 C    0.896
    25   6 C    3.871 --    42 H    0.984    40 H    0.979    41 H    0.978
                            24 O    0.896
    26   1 H    1.008 --     1 C    0.979
    27   1 H    1.007 --     1 C    0.979
    28   1 H    1.011 --     1 C    0.986
    29   1 H    1.001 --     9 C    0.985
    30   1 H    1.009 --     9 C    0.977
    31   1 H    1.001 --     9 C    0.985
    32   1 H    1.010 --    10 C    0.983
    33   1 H    1.004 --    10 C    0.985
    34   1 H    1.007 --    10 C    0.982
    35   1 H    0.937 --    11 N    0.893
    36   1 H    0.996 --    18 C    0.960
    37   1 H    0.998 --    18 C    0.982
    38   1 H    0.997 --    18 C    0.965
    39   1 H    0.928 --    20 N    0.882
    40   1 H    1.014 --    25 C    0.979
    41   1 H    1.015 --    25 C    0.978
    42   1 H    1.012 --    25 C    0.984
 ---------------------------------------------------------------------------

           -------------------------------------------------
          | TOTAL ENERGY              -83.020595959520 Eh   |
          | GRADIENT NORM               0.000937975713 Eh/α |
          | HOMO-LUMO GAP               2.756231144774 eV   |
           -------------------------------------------------

 * finished run on 2023/06/21 at 17:23:42.838
