   * xtb version 6.5.1 (579679a) compiled by 'ehlert@majestix' on 2022-07-11
          program call               : /lustre/hpc/kemi/ree/PhD/git/ReactivityQM/dep/xtb-6.5.1/bin/xtb --gfn 1 /lustre/hpc/kemi/ree/PhD/git/ReactivityQM/calculations/R02/reac01prodE09/conf08/R02_reac01prodE09_conf08_gfn1.xyz --opt --vfukui --chrg -1 --uhf 0 --alpb DMSO

   ID    Z sym.   atoms
    1    6 C      1, 3, 5, 7-10, 12, 14, 16, 17, 20, 22, 24
    2    8 O      2, 4, 13, 15, 23, 25
    3    7 N      6, 11, 18, 19, 21
    4    1 H      26-43

      * Solvation model:               ALPB
        Solvent                        DMSO
        Solvent mass                       7.8130E+01 g/mol
          :  Hamiltonian                  GFN1-xTB          :
 * total energy  :   -83.8370494 Eh     change       -0.1891465E-10 Eh
 * total energy  :   -83.8472906 Eh     change       -0.1024119E-01 Eh
 * total energy  :   -83.8508186 Eh     change       -0.3528036E-02 Eh
 * total energy  :   -83.8515870 Eh     change       -0.7684127E-03 Eh
 * total energy  :   -83.8524159 Eh     change       -0.8288592E-03 Eh
 * total energy  :   -83.8531248 Eh     change       -0.7089417E-03 Eh
 * total energy  :   -83.8542529 Eh     change       -0.1128104E-02 Eh
 * total energy  :   -83.8553331 Eh     change       -0.1080192E-02 Eh
 * total energy  :   -83.8562687 Eh     change       -0.9355949E-03 Eh
 * total energy  :   -83.8571355 Eh     change       -0.8667332E-03 Eh
 * total energy  :   -83.8600934 Eh     change       -0.1584508E-04 Eh
 * total energy  :   -83.8601035 Eh     change       -0.1008259E-04 Eh
 * total energy  :   -83.8601144 Eh     change       -0.1089348E-04 Eh
 * total energy  :   -83.8601244 Eh     change       -0.1000615E-04 Eh
 * total energy  :   -83.8601376 Eh     change       -0.1319107E-04 Eh
 * total energy  :   -83.8601491 Eh     change       -0.1145301E-04 Eh
 * total energy  :   -83.8601581 Eh     change       -0.9021573E-05 Eh
 * total energy  :   -83.8601658 Eh     change       -0.7673007E-05 Eh
 * total energy  :   -83.8601689 Eh     change       -0.3096065E-05 Eh
   *** GEOMETRY OPTIMIZATION CONVERGED AFTER 44 ITERATIONS ***

 final structure:
================
43
 xtb: 6.5.1 (579679a)
C           -5.91271785387367       -1.88577323929751       -1.06859224742073
O           -4.71122019000889       -1.21546064975999       -0.69820017458985
C           -4.66845521791844        0.10566236591271       -0.95615943451231
O           -5.61751824004719        0.69427844053168       -1.47640113142831
C           -3.42429196801068        0.75268853889121       -0.56646966333316
N           -2.44575786521314       -0.03485562125639        0.00017739474496
C           -1.33141920851526        0.51287919279362        0.34942142215212
C           -0.25024941442156       -0.30441525785432        1.03024237270054
C           -0.48355192653547       -0.16169284988482        2.54487708485960
C           -0.36035077868929       -1.77350924254233        0.59763056665494
N            1.03187447608041        0.28827015650316        0.64748114142828
C            2.23721772127719       -0.37602291139255        1.08487775883112
O            2.25774964556981       -1.09970791610861        2.11988230979153
C            3.31893168592129       -0.15001231062167        0.26684666877212
O            3.32121960389172        0.70857986512318       -0.84667450238294
C            4.60495605996322        0.74588278877851       -1.24296101503089
C            4.95509939570924        1.56251356201041       -2.43505093694656
N            5.43085696682748        0.06327231740066       -0.54509483476174
N            4.68846624552327       -0.51091385489991        0.52503687373554
C            4.94668946214357       -1.95284721598868        0.61281433576682
N           -1.09518176170025        1.84865104441562        0.19823350731632
C           -1.99632712371269        2.74748396713194       -0.36224347308993
O           -1.69906911834167        3.93693030528870       -0.46769793881706
C           -3.23416728811829        2.11769007324860       -0.76141143942875
O           -4.17377494116953        2.91345198532504       -1.31645330488578
H           -6.76758026929837       -1.45996827293909       -0.53585478769537
H           -5.78656783177972       -2.93236533966591       -0.79639627919030
H           -6.08302775679670       -1.79605333936645       -2.14496058917964
H           -1.50916119838234       -0.44342302222342        2.78226840377642
H           -0.32047238947070        0.87211642645917        2.84765532850401
H            0.19748138159953       -0.80501083897040        3.09864561751737
H            0.36544454834207       -2.37764483258553        1.13962039015464
H           -0.17314949253288       -1.86248668141344       -0.47188744964420
H           -1.36320020121426       -2.14304518865864        0.80926339137850
H            1.07013003688192        0.43340191084171       -0.35644957851311
H            4.70305285156414        2.60827465984244       -2.25908740820703
H            6.01904323254915        1.47593901949569       -2.64094053160417
H            4.38773553086948        1.21965639568578       -3.29965774593845
H            4.38201694375951       -2.33737829022862        1.46168349258140
H            4.63783909749380       -2.46694650047917       -0.30203516947738
H            6.01233432471004       -2.10359691620851        0.77664815932873
H           -0.19618632315038        2.21523781775131        0.48301333518150
H           -4.96474185177435        2.37026945891395       -1.54232191909326

          :  Hamiltonian                  GFN1-xTB          :
         :: total energy             -83.860168860968 Eh    ::
         :: gradient norm              0.000378856911 Eh/a0 ::
         :: HOMO-LUMO gap              0.085632085089 eV    ::
         :: SCC energy               -84.618182318400 Eh    ::
         :: -> Gsolv                  -0.104690918921 Eh    ::
         :: repulsion energy           0.783869009325 Eh    ::

    * Orbital Energies and Occupations

         #    Occupation            Energy/Eh            Energy/eV
      -------------------------------------------------------------
         1        2.0000           -0.8169066             -22.2292
       ...           ...                  ...                  ...
        56        2.0000           -0.4771281             -12.9833
        57        2.0000           -0.4686241             -12.7519
        58        2.0000           -0.4616177             -12.5613
        59        2.0000           -0.4566015             -12.4248
        60        2.0000           -0.4450315             -12.1099
        61        2.0000           -0.4361726             -11.8689
        62        2.0000           -0.4314306             -11.7398
        63        2.0000           -0.4203947             -11.4395
        64        2.0000           -0.4085131             -11.1162
        65        2.0000           -0.4034239             -10.9777
        66        2.0000           -0.4008487             -10.9076
        67        2.0000           -0.3856268             -10.4934
        68        1.6795           -0.3071391              -8.3577 (HOMO)
        69        0.3205           -0.3039922              -8.2720 (LUMO)
        70                         -0.2534258              -6.8961
        71                         -0.2265353              -6.1643
        72                         -0.2149841              -5.8500
        73                         -0.1511618              -4.1133
        74                         -0.1305038              -3.5512
        75                         -0.1288338              -3.5057
        76                         -0.1277530              -3.4763
        77                         -0.1044345              -2.8418
        78                         -0.1022982              -2.7837
        79                         -0.1002243              -2.7272
       ...                                ...                  ...
       136                          0.7129005              19.3990
      -------------------------------------------------------------
                  HL-Gap            0.0031469 Eh            0.0856 eV

Wiberg/Mayer (AO) data.
largest (>0.10) Wiberg bond orders for each atom

     #   Z sym  total        # sym  WBO       # sym  WBO       # sym  WBO
 ---------------------------------------------------------------------------
     1   6 C    3.884 --    27 H    0.987    26 H    0.980    28 H    0.980
                             2 O    0.911
     2   8 O    2.157 --     3 C    1.075     1 C    0.911     4 O    0.110
     3   6 C    3.769 --     4 O    1.537     5 C    1.088     2 O    1.075
     4   8 O    1.854 --     3 C    1.537     2 O    0.110
     5   6 C    3.883 --    24 C    1.391     6 N    1.160     3 C    1.088
     6   7 N    3.005 --     7 C    1.590     5 C    1.160
     7   6 C    3.910 --     6 N    1.590    21 N    1.164     8 C    0.978
     8   6 C    3.960 --    10 C    0.988     7 C    0.978     9 C    0.976
                            11 N    0.962
     9   6 C    3.991 --    29 H    0.988    30 H    0.986     8 C    0.976
                            31 H    0.976
    10   6 C    3.993 --     8 C    0.988    33 H    0.986    34 H    0.985
                            32 H    0.982
    11   7 N    3.081 --    12 C    0.978     8 C    0.962    35 H    0.931
    12   6 C    3.872 --    14 C    1.412    13 O    1.372    11 N    0.978
    13   8 O    1.684 --    12 C    1.372    14 C    0.122
    14   6 C    3.557 --    12 C    1.412    19 N    0.985    15 O    0.915
                            13 O    0.122
    15   8 O    2.181 --    16 C    1.067    14 C    0.915    18 N    0.112
    16   6 C    3.895 --    18 N    1.707    15 O    1.067    17 C    1.020
    17   6 C    3.993 --    16 C    1.020    37 H    0.986    38 H    0.970
                            36 H    0.970
    18   7 N    2.932 --    16 C    1.707    19 N    1.006    15 O    0.112
    19   7 N    3.078 --    18 N    1.006    14 C    0.985    20 C    0.950
    20   6 C    3.953 --    41 H    0.989    39 H    0.984    40 H    0.983
                            19 N    0.950
    21   7 N    3.395 --     7 C    1.164    22 C    1.088    42 H    0.886
                            23 O    0.118
    22   6 C    3.862 --    23 O    1.537    24 C    1.122    21 N    1.088
    23   8 O    1.809 --    22 C    1.537    21 N    0.118
    24   6 C    3.806 --     5 C    1.391    22 C    1.122    25 O    1.083
    25   8 O    2.028 --    24 C    1.083    43 H    0.786
    26   1 H    1.009 --     1 C    0.980
    27   1 H    1.013 --     1 C    0.987
    28   1 H    1.009 --     1 C    0.980
    29   1 H    1.007 --     9 C    0.988
    30   1 H    1.009 --     9 C    0.986
    31   1 H    1.025 --     9 C    0.976
    32   1 H    1.016 --    10 C    0.982
    33   1 H    1.006 --    10 C    0.986
    34   1 H    1.016 --    10 C    0.985
    35   1 H    0.970 --    11 N    0.931
    36   1 H    1.001 --    17 C    0.970
    37   1 H    1.003 --    17 C    0.986
    38   1 H    1.001 --    17 C    0.970
    39   1 H    1.029 --    20 C    0.984
    40   1 H    1.009 --    20 C    0.983
    41   1 H    1.018 --    20 C    0.989
    42   1 H    0.951 --    21 N    0.886
    43   1 H    0.867 --    25 O    0.786
 ---------------------------------------------------------------------------

           -------------------------------------------------
          | TOTAL ENERGY              -83.860168860968 Eh   |
          | GRADIENT NORM               0.000378856911 Eh/α |
          | HOMO-LUMO GAP               0.085632085089 eV   |
           -------------------------------------------------

 * finished run on 2023/06/20 at 15:09:41.581
