   * xtb version 6.5.1 (579679a) compiled by 'ehlert@majestix' on 2022-07-11
          program call               : /lustre/hpc/kemi/ree/PhD/git/ReactivityQM/dep/xtb-6.5.1/bin/xtb --gfn 1 /lustre/hpc/kemi/ree/PhD/git/ReactivityQM/calculations/R02oxygendeprot/reac02prodN01/conf12/R02oxygendeprot_reac02prodN01_conf12_gfn1.xyz --opt --vfukui --chrg 1 --uhf 0 --alpb DMSO

   ID    Z sym.   atoms
    1    6 C      1, 4
    2    8 O      2, 5
    3    5 B      3
    4    1 H      6-13

      * Solvation model:               ALPB
        Solvent                        DMSO
        Solvent mass                       7.8130E+01 g/mol
          :  Hamiltonian                  GFN1-xTB          :
 * total energy  :   -19.0505498 Eh     change       -0.6502177E-10 Eh
 * total energy  :   -19.0615651 Eh     change       -0.1101533E-01 Eh
 * total energy  :   -19.0643070 Eh     change       -0.2741936E-02 Eh
 * total energy  :   -19.0648950 Eh     change       -0.5879549E-03 Eh
 * total energy  :   -19.0652274 Eh     change       -0.3324164E-03 Eh
 * total energy  :   -19.0652713 Eh     change       -0.4388314E-04 Eh
 * total energy  :   -19.0652959 Eh     change       -0.2464408E-04 Eh
 * total energy  :   -19.0653158 Eh     change       -0.1983556E-04 Eh
 * total energy  :   -19.0653276 Eh     change       -0.1181850E-04 Eh
 * total energy  :   -19.0653374 Eh     change       -0.9769929E-05 Eh
 * total energy  :   -19.0653430 Eh     change       -0.5670012E-05 Eh
 * total energy  :   -19.0653581 Eh     change       -0.1505303E-04 Eh
 * total energy  :   -19.0653665 Eh     change       -0.8429293E-05 Eh
 * total energy  :   -19.0653608 Eh     change        0.5747126E-05 Eh
 * total energy  :   -19.0653751 Eh     change       -0.1429656E-04 Eh
 * total energy  :   -19.0653776 Eh     change       -0.2566402E-05 Eh
   *** GEOMETRY OPTIMIZATION CONVERGED AFTER 16 ITERATIONS ***

 final structure:
================
13
 xtb: 6.5.1 (579679a)
C            1.97179175948528       -0.51236373117125        0.06961535177738
O            0.77183261795418        0.25718483409177       -0.23681309589745
B           -0.60186546043766       -0.08382068638852        0.17330663234905
C           -1.71726002682107        0.85605174613458       -0.34931353406894
O           -0.63270753702763       -1.17926201481092        0.92134422887397
H            2.69566831313924        0.15456380421189        0.53456232886649
H            1.66924225746749       -1.29822225236456        0.75750442399095
H            2.35898427863859       -0.93313997042026       -0.85725995323158
H            0.93441654578098        1.02604267302916       -0.79861725137322
H           -2.58740356878883        0.84816226479621        0.30313653060062
H           -2.04485357658690        0.52305137467156       -1.33538871663985
H           -1.36991320558351        1.88125637434247       -0.45317028767448
H           -1.44793339722001       -1.53950541612279        1.27109234242677

          :  Hamiltonian                  GFN1-xTB          :
         :: total energy             -19.065377627195 Eh    ::
         :: gradient norm              0.000521546432 Eh/a0 ::
         :: HOMO-LUMO gap              7.486831382949 eV    ::
         :: SCC energy               -19.256776364815 Eh    ::
         :: -> Gsolv                  -0.095131109580 Eh    ::
         :: repulsion energy           0.194878556836 Eh    ::

    * Orbital Energies and Occupations

         #    Occupation            Energy/Eh            Energy/eV
      -------------------------------------------------------------
         1        2.0000           -0.9095877             -24.7511
       ...           ...                  ...                  ...
         3        2.0000           -0.7656066             -20.8332
         4        2.0000           -0.7556512             -20.5623
         5        2.0000           -0.6870255             -18.6949
         6        2.0000           -0.6733978             -18.3241
         7        2.0000           -0.6640106             -18.0686
         8        2.0000           -0.6501957             -17.6927
         9        2.0000           -0.6221756             -16.9303
        10        2.0000           -0.6043530             -16.4453
        11        2.0000           -0.5660892             -15.4041
        12        2.0000           -0.5532851             -15.0557
        13        2.0000           -0.5444696             -14.8158
        14        2.0000           -0.5432069             -14.7814
        15        2.0000           -0.5240375             -14.2598 (HOMO)
        16                         -0.2489015              -6.7730 (LUMO)
        17                         -0.1893016              -5.1512
        18                         -0.1756874              -4.7807
        19                         -0.1496359              -4.0718
        20                         -0.1266677              -3.4468
        21                         -0.1081458              -2.9428
        22                         -0.0953043              -2.5934
        23                         -0.0795106              -2.1636
        24                         -0.0715120              -1.9459
        25                         -0.0513605              -1.3976
        26                          0.0905649               2.4644
       ...                                ...                  ...
        36                          0.6462873              17.5864
      -------------------------------------------------------------
                  HL-Gap            0.2751360 Eh            7.4868 eV

Wiberg/Mayer (AO) data.
largest (>0.10) Wiberg bond orders for each atom

     #   Z sym  total        # sym  WBO       # sym  WBO       # sym  WBO
 ---------------------------------------------------------------------------
     1   6 C    3.783 --     6 H    0.982     8 H    0.982     7 H    0.978
                             2 O    0.809
     2   8 O    2.394 --     1 C    0.809     3 B    0.766     9 H    0.760
     3   5 B    3.138 --     5 O    1.257     4 C    1.034     2 O    0.766
     4   6 C    3.986 --     3 B    1.034    12 H    0.971    10 H    0.970
                            11 H    0.948
     5   8 O    2.145 --     3 B    1.257    13 H    0.792
     6   1 H    0.995 --     1 C    0.982
     7   1 H    1.000 --     1 C    0.978
     8   1 H    0.995 --     1 C    0.982
     9   1 H    0.790 --     2 O    0.760
    10   1 H    0.992 --     4 C    0.970
    11   1 H    0.991 --     4 C    0.948
    12   1 H    0.992 --     4 C    0.971
    13   1 H    0.812 --     5 O    0.792
 ---------------------------------------------------------------------------

           -------------------------------------------------
          | TOTAL ENERGY              -19.065377627195 Eh   |
          | GRADIENT NORM               0.000521546432 Eh/α |
          | HOMO-LUMO GAP               7.486831382949 eV   |
           -------------------------------------------------

 * finished run on 2023/06/21 at 17:40:21.736
