   * xtb version 6.5.1 (579679a) compiled by 'ehlert@majestix' on 2022-07-11
          program call               : /lustre/hpc/kemi/ree/PhD/git/ReactivityQM/dep/xtb-6.5.1/bin/xtb --gfn 1 /lustre/hpc/kemi/ree/PhD/git/ReactivityQM/calculations/RaltegravirCLI/reac02prodN13/conf18/RaltegravirCLI_reac02prodN13_conf18_gfn1.xyz --opt --vfukui --chrg 1 --uhf 0 --alpb DMSO

   ID    Z sym.   atoms
    1    6 C      1, 3-6, 9, 10, 13-17, 19-21, 23, 24
    2    7 N      2, 7, 8, 12
    3    8 O      11, 22, 25
    4    9 F      18
    5    1 H      26-47

      * Solvation model:               ALPB
        Solvent                        DMSO
        Solvent mass                       7.8130E+01 g/mol
          :  Hamiltonian                  GFN1-xTB          :
 * total energy  :   -79.4012123 Eh     change       -0.1028056E-08 Eh
 * total energy  :   -79.4202776 Eh     change       -0.1906534E-01 Eh
 * total energy  :   -79.4302163 Eh     change       -0.9938703E-02 Eh
 * total energy  :   -79.4331439 Eh     change       -0.2927552E-02 Eh
 * total energy  :   -79.4354844 Eh     change       -0.2340558E-02 Eh
 * total energy  :   -79.4366735 Eh     change       -0.1189077E-02 Eh
 * total energy  :   -79.4373367 Eh     change       -0.6631712E-03 Eh
 * total energy  :   -79.4377829 Eh     change       -0.4462458E-03 Eh
 * total energy  :   -79.4380943 Eh     change       -0.3113432E-03 Eh
 * total energy  :   -79.4383684 Eh     change       -0.2741857E-03 Eh
 * total energy  :   -79.4931216 Eh     change       -0.2052040E-04 Eh
 * total energy  :   -79.4931383 Eh     change       -0.1668814E-04 Eh
 * total energy  :   -79.4931566 Eh     change       -0.1829907E-04 Eh
 * total energy  :   -79.4931718 Eh     change       -0.1521516E-04 Eh
 * total energy  :   -79.4931827 Eh     change       -0.1087699E-04 Eh
 * total energy  :   -79.4931914 Eh     change       -0.8664886E-05 Eh
 * total energy  :   -79.4931990 Eh     change       -0.7672052E-05 Eh
 * total energy  :   -79.4932047 Eh     change       -0.5626651E-05 Eh
 * total energy  :   -79.4932087 Eh     change       -0.4024726E-05 Eh
   *** GEOMETRY OPTIMIZATION CONVERGED AFTER 83 ITERATIONS ***

 final structure:
================
47
 xtb: 6.5.1 (579679a)
C           -4.57600132817823       -0.80764241777741        0.07613418024065
N           -3.11331306147311       -0.69663958840150        0.04996569031124
C           -2.42354467424964        0.26502005914347        0.65825864956464
C           -3.00033887021525        1.54263939723764        1.18471479887117
C           -3.28742975719505        1.33895379515661        2.68549896317621
C           -1.95161642909023        2.65919762074948        1.00525422626684
N           -4.22753535803235        1.87143711907734        0.49160321825152
N           -1.12078422566625        0.05593333760474        0.94418622717483
C           -0.38602648345260       -0.79661998720845        0.31602557774110
C            0.99024579984232       -1.04982554660927        0.90002183929421
O            1.21826248255726       -0.77216985320103        2.06305858897266
N            1.88479073927189       -1.55538990785067        0.04142740357346
C            3.26712834543542       -1.78356304730387        0.43657666694410
C            4.20577349377418       -0.77474005474033       -0.18989709728233
C            3.76718001555913        0.49873741298824       -0.54221436847073
C            4.64726189619663        1.42238126384933       -1.08826316843765
C            5.96571242491986        1.04609899529513       -1.26925085968533
F            6.82312703375929        1.93340358421847       -1.79338631372288
C            6.43385077982430       -0.21184565223461       -0.93216498568350
C            5.54014844364322       -1.12383388855522       -0.38999236750232
C           -0.94443236988576       -1.42145812670160       -0.92124500531921
O           -0.27656905089148       -2.59829038019618       -1.24178594784912
C           -2.43308306564815       -1.68856457666062       -0.71034417425404
C           -0.86917766866826       -0.40113216497543       -2.09191881363205
O           -3.02078392898247       -2.58629214525398       -1.23639031818481
H           -4.98683830566247       -0.24754476957394       -0.76156982197119
H           -4.83101481198857       -1.86192278909647       -0.01962072116359
H           -4.95321732615769       -0.40437186575583        1.00909464666849
H           -3.63550200858722        2.28239137037056        3.10151766462128
H           -2.37980334213353        1.03002003677049        3.20153789760067
H           -4.05767973003882        0.58267931744338        2.82416859912211
H           -1.04438055433605        2.42584703619117        1.56016755871713
H           -1.70752510360238        2.77117875468543       -0.04919663689610
H           -2.37061050639447        3.59290438757769        1.37405546050055
H           -4.02185785570767        2.17453473250464       -0.44997934439671
H           -4.69893326215516        2.62666914879626        0.96991029025979
H            1.62464582149005       -1.78118977359922       -0.90420029562685
H            3.54569377814515       -2.79693324826474        0.13473219942409
H            3.31695236594126       -1.71635188766387        1.52930776827987
H            2.72827261441115        0.77114808994097       -0.40220404669316
H            4.31493374145211        2.41298694349054       -1.36930774390276
H            7.47207862895959       -0.47197121042391       -1.09382202963831
H            5.88441365276075       -2.11575071517854       -0.12153542475699
H           -0.77974902335068       -3.12237846163260       -1.88273205783555
H           -1.34424101118376        0.53513450093111       -1.81061140423528
H            0.17921317228130       -0.22899141725836       -2.32425467021896
H           -1.36769711729093       -0.82388042790759       -2.96132949821269

          :  Hamiltonian                  GFN1-xTB          :
         :: total energy             -79.493208685392 Eh    ::
         :: gradient norm              0.000479152630 Eh/a0 ::
         :: HOMO-LUMO gap              0.777380170552 eV    ::
         :: SCC energy               -80.387453880496 Eh    ::
         :: -> Gsolv                  -0.110304866622 Eh    ::
         :: repulsion energy           0.925456039640 Eh    ::

    * Orbital Energies and Occupations

         #    Occupation            Energy/Eh            Energy/eV
      -------------------------------------------------------------
         1        2.0000           -0.8859339             -24.1075
       ...           ...                  ...                  ...
        55        2.0000           -0.5269593             -14.3393
        56        2.0000           -0.5230087             -14.2318
        57        2.0000           -0.5157531             -14.0344
        58        2.0000           -0.5123784             -13.9425
        59        2.0000           -0.5096287             -13.8677
        60        2.0000           -0.5045781             -13.7303
        61        2.0000           -0.4967576             -13.5175
        62        2.0000           -0.4826582             -13.1338
        63        2.0000           -0.4777570             -13.0004
        64        2.0000           -0.4683048             -12.7432
        65        2.0000           -0.4594152             -12.5013
        66        2.0000           -0.4434289             -12.0663
        67        2.0000           -0.4427304             -12.0473 (HOMO)
        68        0.0000           -0.4141622             -11.2699 (LUMO)
        69                         -0.3419970              -9.3062
        70                         -0.3017415              -8.2108
        71                         -0.2813342              -7.6555
        72                         -0.2739417              -7.4543
        73                         -0.2457101              -6.6861
        74                         -0.1584610              -4.3119
        75                         -0.1582055              -4.3050
        76                         -0.1525977              -4.1524
        77                         -0.1472193              -4.0060
        78                         -0.1396663              -3.8005
       ...                                ...                  ...
       144                          0.6913281              18.8120
      -------------------------------------------------------------
                  HL-Gap            0.0285682 Eh            0.7774 eV

Wiberg/Mayer (AO) data.
largest (>0.10) Wiberg bond orders for each atom

     #   Z sym  total        # sym  WBO       # sym  WBO       # sym  WBO
 ---------------------------------------------------------------------------
     1   6 C    3.886 --    28 H    0.979    27 H    0.971    26 H    0.964
                             2 N    0.900
     2   7 N    3.548 --     3 C    1.364    23 C    1.011     1 C    0.900
     3   6 C    3.874 --     2 N    1.364     8 N    1.247     4 C    1.011
     4   6 C    3.958 --     3 C    1.011     7 N    1.001     6 C    0.956
                             5 C    0.938
     5   6 C    3.978 --    30 H    0.984    31 H    0.982    29 H    0.975
                             4 C    0.938
     6   6 C    3.984 --    33 H    0.984    32 H    0.981    34 H    0.980
                             4 C    0.956
     7   7 N    2.987 --     4 C    1.001    35 H    0.932    36 H    0.926
     8   7 N    3.142 --     9 C    1.647     3 C    1.247
     9   6 C    3.901 --     8 N    1.647    21 C    1.000    10 C    0.956
    10   6 C    3.921 --    11 O    1.594    12 N    1.294     9 C    0.956
    11   8 O    1.913 --    10 C    1.594    12 N    0.202
    12   7 N    3.418 --    10 C    1.294    13 C    0.939    37 H    0.884
                            11 O    0.202
    13   6 C    3.929 --    14 C    0.992    38 H    0.965    39 H    0.958
                            12 N    0.939
    14   6 C    3.984 --    15 C    1.419    20 C    1.413    13 C    0.992
    15   6 C    3.994 --    16 C    1.442    14 C    1.419    40 H    0.971
                            19 C    0.110
    16   6 C    3.992 --    15 C    1.442    17 C    1.401    41 H    0.968
                            20 C    0.111
    17   6 C    3.862 --    16 C    1.401    19 C    1.397    18 F    0.930
    18   9 F    1.060 --    17 C    0.930
    19   6 C    3.991 --    20 C    1.447    17 C    1.397    42 H    0.968
                            15 C    0.110
    20   6 C    3.993 --    19 C    1.447    14 C    1.413    43 H    0.971
                            16 C    0.111
    21   6 C    3.934 --     9 C    1.000    22 O    0.989    23 C    0.926
                            24 C    0.899
    22   8 O    1.924 --    21 C    0.989    44 H    0.814
    23   6 C    3.860 --    25 O    1.775     2 N    1.011    21 C    0.926
    24   6 C    3.971 --    45 H    0.984    47 H    0.977    46 H    0.977
                            21 C    0.899
    25   8 O    2.036 --    23 C    1.775
    26   1 H    1.005 --     1 C    0.964
    27   1 H    0.998 --     1 C    0.971
    28   1 H    1.015 --     1 C    0.979
    29   1 H    0.994 --     5 C    0.975
    30   1 H    1.000 --     5 C    0.984
    31   1 H    0.999 --     5 C    0.982
    32   1 H    1.004 --     6 C    0.981
    33   1 H    0.999 --     6 C    0.984
    34   1 H    0.998 --     6 C    0.980
    35   1 H    0.946 --     7 N    0.932
    36   1 H    0.941 --     7 N    0.926
    37   1 H    0.939 --    12 N    0.884
    38   1 H    0.998 --    13 C    0.965
    39   1 H    1.007 --    13 C    0.958
    40   1 H    1.002 --    15 C    0.971
    41   1 H    0.997 --    16 C    0.968
    42   1 H    0.997 --    19 C    0.968
    43   1 H    0.997 --    20 C    0.971
    44   1 H    0.835 --    22 O    0.814
    45   1 H    0.996 --    24 C    0.984
    46   1 H    0.996 --    24 C    0.977
    47   1 H    0.992 --    24 C    0.977
 ---------------------------------------------------------------------------

           -------------------------------------------------
          | TOTAL ENERGY              -79.493208685392 Eh   |
          | GRADIENT NORM               0.000479152630 Eh/α |
          | HOMO-LUMO GAP               0.777380170552 eV   |
           -------------------------------------------------

 * finished run on 2023/06/20 at 15:34:59.547
