   * xtb version 6.5.1 (579679a) compiled by 'ehlert@majestix' on 2022-07-11
          program call               : /lustre/hpc/kemi/ree/PhD/git/ReactivityQM/dep/xtb-6.5.1/bin/xtb --gfn 1 /lustre/hpc/kemi/ree/PhD/git/ReactivityQM/calculations/R03/reac01prodE04/conf09/R03_reac01prodE04_conf09_gfn1.xyz --opt --vfukui --chrg -1 --uhf 0 --alpb DMSO

   ID    Z sym.   atoms
    1    6 C      1, 2, 4-7, 9, 10
    2    9 F      3
    3    7 N      8
    4    1 H      11-21

      * Solvation model:               ALPB
        Solvent                        DMSO
        Solvent mass                       7.8130E+01 g/mol
          :  Hamiltonian                  GFN1-xTB          :
 * total energy  :   -31.4693808 Eh     change       -0.1938005E-10 Eh
 * total energy  :   -31.4754081 Eh     change       -0.6027290E-02 Eh
 * total energy  :   -31.4784772 Eh     change       -0.3069106E-02 Eh
 * total energy  :   -31.4803802 Eh     change       -0.1902967E-02 Eh
 * total energy  :   -31.4828739 Eh     change       -0.2493666E-02 Eh
 * total energy  :   -31.4882283 Eh     change       -0.5354436E-02 Eh
 * total energy  :   -31.4947094 Eh     change       -0.6481139E-02 Eh
 * total energy  :   -31.4977283 Eh     change       -0.3018841E-02 Eh
 * total energy  :   -31.5008417 Eh     change       -0.3113423E-02 Eh
 * total energy  :   -31.5029584 Eh     change       -0.2116642E-02 Eh
 * total energy  :   -31.5123557 Eh     change       -0.5127872E-04 Eh
 * total energy  :   -31.5123999 Eh     change       -0.4419139E-04 Eh
 * total energy  :   -31.5124348 Eh     change       -0.3487576E-04 Eh
 * total energy  :   -31.5125071 Eh     change       -0.7230194E-04 Eh
 * total energy  :   -31.5125370 Eh     change       -0.2988078E-04 Eh
 * total energy  :   -31.5125657 Eh     change       -0.2870185E-04 Eh
 * total energy  :   -31.5125729 Eh     change       -0.7230851E-05 Eh
 * total energy  :   -31.5125788 Eh     change       -0.5886028E-05 Eh
 * total energy  :   -31.5125828 Eh     change       -0.4057470E-05 Eh
   *** GEOMETRY OPTIMIZATION CONVERGED AFTER 59 ITERATIONS ***

 final structure:
================
21
 xtb: 6.5.1 (579679a)
C           -3.10883783914404        0.09282833741563       -0.02375905695219
C           -1.62823227647475       -0.02250960471664        0.18483491457009
F           -3.53985215089017        0.76221854009123       -2.98023626211170
C           -0.96101369717593       -1.21365656530330       -0.09934491538274
C            0.41324791432857       -1.31464176397328        0.06164796850836
C            1.15746508184140       -0.22930041833329        0.51731109769290
C            2.65586541888798       -0.32981141489838        0.67077833389901
N            3.32797005169524        0.24930331117661       -0.50366667225052
C            0.49314476288980        0.95995206155437        0.80766177418929
C           -0.88074781863881        1.06183215894997        0.64283463032907
H           -3.31517235491886        0.33280324482523       -1.07946439792686
H           -3.53068072252656        0.88418062082897        0.59629148666040
H           -3.60846493117185       -0.84686427558839        0.21396538715388
H           -1.52085622224541       -2.07759539192435       -0.44465141043208
H            0.91101340191555       -2.25370731750243       -0.15938751372918
H            2.95535308394315       -1.38016997974560        0.74330654996996
H            2.97813416927362        0.18486430800394        1.58813268250535
H            3.20601671645454        1.25467333693152       -0.47832725666468
H            4.31754796316705        0.07620409693735       -0.40385819283389
H            1.05438319512355        1.81248494061532        1.17518477285726
H           -1.37628474649970        1.99691177476105        0.88439907993994

          :  Hamiltonian                  GFN1-xTB          :
         :: total energy             -31.512582845322 Eh    ::
         :: gradient norm              0.000576236379 Eh/a0 ::
         :: HOMO-LUMO gap              2.424301962798 eV    ::
         :: SCC energy               -31.915566633388 Eh    ::
         :: -> Gsolv                  -0.130950058033 Eh    ::
         :: repulsion energy           0.412581300775 Eh    ::

    * Orbital Energies and Occupations

         #    Occupation            Energy/Eh            Energy/eV
      -------------------------------------------------------------
         1        2.0000           -0.7367176             -20.0471
       ...           ...                  ...                  ...
        16        2.0000           -0.5061669             -13.7735
        17        2.0000           -0.4952221             -13.4757
        18        2.0000           -0.4831914             -13.1483
        19        2.0000           -0.4753971             -12.9362
        20        2.0000           -0.4727283             -12.8636
        21        2.0000           -0.4489184             -12.2157
        22        2.0000           -0.4469587             -12.1624
        23        2.0000           -0.4214778             -11.4690
        24        2.0000           -0.4068316             -11.0705
        25        2.0000           -0.3959159             -10.7734
        26        2.0000           -0.3328997              -9.0587
        27        2.0000           -0.3328976              -9.0586
        28        2.0000           -0.3324703              -9.0470 (HOMO)
        29                         -0.2433788              -6.6227 (LUMO)
        30                         -0.2399316              -6.5289
        31                         -0.1201807              -3.2703
        32                         -0.1043606              -2.8398
        33                         -0.0990733              -2.6959
        34                         -0.0979676              -2.6658
        35                         -0.0854802              -2.3260
        36                         -0.0788904              -2.1467
        37                         -0.0741246              -2.0170
        38                         -0.0565273              -1.5382
        39                         -0.0415296              -1.1301
       ...                                ...                  ...
        62                          0.6639868              18.0680
      -------------------------------------------------------------
                  HL-Gap            0.0890915 Eh            2.4243 eV

Wiberg/Mayer (AO) data.
largest (>0.10) Wiberg bond orders for each atom

     #   Z sym  total        # sym  WBO       # sym  WBO       # sym  WBO
 ---------------------------------------------------------------------------
     1   6 C    3.989 --     2 C    1.030    12 H    0.985    13 H    0.983
                            11 H    0.931
     2   6 C    3.987 --    10 C    1.406     4 C    1.405     1 C    1.030
                             6 C    0.106
     3   9 F    0.095
     4   6 C    3.995 --     5 C    1.452     2 C    1.405    14 H    0.974
                             9 C    0.108
     5   6 C    3.996 --     4 C    1.452     6 C    1.415    15 H    0.973
                            10 C    0.107
     6   6 C    3.988 --     5 C    1.415     9 C    1.414     7 C    1.005
                             2 C    0.106
     7   6 C    3.979 --     6 C    1.005     8 N    0.983    16 H    0.981
                            17 H    0.973
     8   7 N    2.932 --     7 C    0.983    18 H    0.954    19 H    0.950
     9   6 C    3.996 --    10 C    1.451     6 C    1.414    20 H    0.974
                             4 C    0.108
    10   6 C    3.995 --     9 C    1.451     2 C    1.406    21 H    0.973
                             5 C    0.107
    11   1 H    1.039 --     1 C    0.931
    12   1 H    1.006 --     1 C    0.985
    13   1 H    1.007 --     1 C    0.983
    14   1 H    1.003 --     4 C    0.974
    15   1 H    1.003 --     5 C    0.973
    16   1 H    1.013 --     7 C    0.981
    17   1 H    1.005 --     7 C    0.973
    18   1 H    0.969 --     8 N    0.954
    19   1 H    0.963 --     8 N    0.950
    20   1 H    1.002 --     9 C    0.974
    21   1 H    1.004 --    10 C    0.973
 ---------------------------------------------------------------------------

           -------------------------------------------------
          | TOTAL ENERGY              -31.512582845322 Eh   |
          | GRADIENT NORM               0.000576236379 Eh/α |
          | HOMO-LUMO GAP               2.424301962798 eV   |
           -------------------------------------------------

 * finished run on 2023/06/20 at 15:13:49.809
