   * xtb version 6.5.1 (579679a) compiled by 'ehlert@majestix' on 2022-07-11
          program call               : /lustre/hpc/kemi/ree/PhD/git/ReactivityQM/dep/xtb-6.5.1/bin/xtb --gfn 1 /lustre/hpc/kemi/ree/PhD/git/ReactivityQM/calculations/R01/reac02prodN04/conf19/R01_reac02prodN04_conf19_gfn1.xyz --opt --vfukui --chrg 1 --uhf 0 --alpb DMSO

   ID    Z sym.   atoms
    1    6 C      1, 3, 5, 6, 8, 11-14, 17
    2    8 O      2, 4, 7, 9
    3    7 N      10, 15, 16
    4    1 H      18-33

      * Solvation model:               ALPB
        Solvent                        DMSO
        Solvent mass                       7.8130E+01 g/mol
          :  Hamiltonian                  GFN1-xTB          :
 * total energy  :   -57.8318107 Eh     change       -0.1231371E-10 Eh
 * total energy  :   -57.8485084 Eh     change       -0.1669768E-01 Eh
 * total energy  :   -57.8541211 Eh     change       -0.5612764E-02 Eh
 * total energy  :   -57.8553577 Eh     change       -0.1236583E-02 Eh
 * total energy  :   -57.8560475 Eh     change       -0.6897538E-03 Eh
 * total energy  :   -57.8562520 Eh     change       -0.2045640E-03 Eh
 * total energy  :   -57.8563315 Eh     change       -0.7943951E-04 Eh
 * total energy  :   -57.8563625 Eh     change       -0.3106862E-04 Eh
 * total energy  :   -57.8563862 Eh     change       -0.2365292E-04 Eh
 * total energy  :   -57.8564032 Eh     change       -0.1697773E-04 Eh
 * total energy  :   -57.8585156 Eh     change       -0.2482079E-04 Eh
 * total energy  :   -57.8585396 Eh     change       -0.2404640E-04 Eh
 * total energy  :   -57.8585518 Eh     change       -0.1215173E-04 Eh
 * total energy  :   -57.8585745 Eh     change       -0.2274988E-04 Eh
 * total energy  :   -57.8585840 Eh     change       -0.9491513E-05 Eh
 * total energy  :   -57.8586033 Eh     change       -0.1930705E-04 Eh
 * total energy  :   -57.8586107 Eh     change       -0.7356228E-05 Eh
 * total energy  :   -57.8586197 Eh     change       -0.8987841E-05 Eh
 * total energy  :   -57.8586244 Eh     change       -0.4734109E-05 Eh
   *** GEOMETRY OPTIMIZATION CONVERGED AFTER 35 ITERATIONS ***

 final structure:
================
33
 xtb: 6.5.1 (579679a)
C            4.93690400863321        0.75043497280578       -0.13882888703199
O            3.72859481038189       -0.03016546945398       -0.25484327653059
C            2.61039858526402        0.56462494522965        0.13527265242969
O            2.56975663827145        1.67345691056447        0.60298126391969
C            1.41151290733089       -0.32961120313433       -0.01801166054712
C            1.49936328336634       -1.69268778060367        0.06249730055558
O            2.61400188655270       -2.39917869901128        0.13046746492131
C            0.27749299101542       -2.51071633103340        0.12600332002139
O            0.21721986747734       -3.71330872616684        0.15271337268899
N           -0.87802741309452       -1.73402677998808        0.19304516272776
C           -0.96683607049274       -0.40163750197404        0.07048517904898
C           -2.36728195378560        0.19519647787703        0.11654350146444
C           -2.90833328239205        0.26235693583528       -1.32129355084318
C           -3.30679723133410       -0.66937873919347        0.97664904601427
N           -2.30171798125298        1.53006742868134        0.68868567071813
N            0.15106400148509        0.28382988867024       -0.10346616411103
C            0.12276837916276        1.70811933915515       -0.47966190097385
H            5.74098694913869        0.12430621202165       -0.51595717762433
H            4.83826486204515        1.65706485080291       -0.73767044876249
H            5.10381942930033        1.01274471830523        0.90687596213509
H            3.42561401087336       -1.86327407597817        0.05613673147250
H           -1.72778780203706       -2.27345324975942        0.29850568784617
H           -3.91892115500184        0.66577529953867       -1.29833777207185
H           -2.93475426765553       -0.73596775492955       -1.75439126354958
H           -2.28972620874788        0.90210327886270       -1.94729985265463
H           -2.85442474453201       -0.88230731370999        1.94321520368733
H           -3.56832092565196       -1.60223510067989        0.47955886808059
H           -4.22471200069638       -0.10722064877758        1.13958127148570
H           -2.16693178786038        1.46275736551355        1.68871665049423
H           -3.18083324108435        2.00133583476319        0.52390744401627
H            0.95826105616868        1.90815966376165       -1.14470421524088
H           -0.80548532477926        1.92298153469623       -0.99441613503117
H            0.19486772393124        2.31985171730973        0.41703955124443

          :  Hamiltonian                  GFN1-xTB          :
         :: total energy             -57.858624394001 Eh    ::
         :: gradient norm              0.000818096421 Eh/a0 ::
         :: HOMO-LUMO gap              2.070075943198 eV    ::
         :: SCC energy               -58.439866504708 Eh    ::
         :: -> Gsolv                  -0.101370875350 Eh    ::
         :: repulsion energy           0.600875039763 Eh    ::

    * Orbital Energies and Occupations

         #    Occupation            Energy/Eh            Energy/eV
      -------------------------------------------------------------
         1        2.0000           -0.8882629             -24.1709
       ...           ...                  ...                  ...
        35        2.0000           -0.5563394             -15.1388
        36        2.0000           -0.5429183             -14.7736
        37        2.0000           -0.5378056             -14.6344
        38        2.0000           -0.5362106             -14.5910
        39        2.0000           -0.5317384             -14.4693
        40        2.0000           -0.5291934             -14.4001
        41        2.0000           -0.5268618             -14.3366
        42        2.0000           -0.5220421             -14.2055
        43        2.0000           -0.5209586             -14.1760
        44        2.0000           -0.5152290             -14.0201
        45        2.0000           -0.4986394             -13.5687
        46        2.0000           -0.4783580             -13.0168
        47        2.0000           -0.4403965             -11.9838 (HOMO)
        48                         -0.3643226              -9.9137 (LUMO)
        49                         -0.3509472              -9.5498
        50                         -0.2843336              -7.7371
        51                         -0.2183127              -5.9406
        52                         -0.1600314              -4.3547
        53                         -0.1520482              -4.1374
        54                         -0.1503911              -4.0924
        55                         -0.1434776              -3.9042
        56                         -0.1322915              -3.5998
        57                         -0.1202089              -3.2711
        58                         -0.1083450              -2.9482
       ...                                ...                  ...
       100                          0.7150598              19.4578
      -------------------------------------------------------------
                  HL-Gap            0.0760739 Eh            2.0701 eV

Wiberg/Mayer (AO) data.
largest (>0.10) Wiberg bond orders for each atom

     #   Z sym  total        # sym  WBO       # sym  WBO       # sym  WBO
 ---------------------------------------------------------------------------
     1   6 C    3.837 --    18 H    0.984    20 H    0.978    19 H    0.978
                             2 O    0.863
     2   8 O    2.229 --     3 C    1.130     1 C    0.863     4 O    0.138
     3   6 C    3.863 --     4 O    1.673     2 O    1.130     5 C    0.985
     4   8 O    1.966 --     3 C    1.673     2 O    0.138
     5   6 C    3.921 --     6 C    1.528    16 N    1.068     3 C    0.985
                             7 O    0.108
     6   6 C    3.925 --     5 C    1.528     7 O    1.154     8 C    1.027
     7   8 O    2.127 --     6 C    1.154    21 H    0.780     5 C    0.108
     8   6 C    3.901 --     9 O    1.680    10 N    1.069     6 C    1.027
     9   8 O    1.966 --     8 C    1.680    10 N    0.119
    10   7 N    3.484 --    11 C    1.272     8 C    1.069    22 H    0.865
                             9 O    0.119
    11   6 C    3.884 --    16 N    1.408    10 N    1.272    12 C    0.973
    12   6 C    3.955 --    15 N    0.995    14 C    0.982    11 C    0.973
                            13 C    0.967
    13   6 C    3.986 --    24 H    0.984    25 H    0.978    23 H    0.977
                            12 C    0.967
    14   6 C    3.988 --    26 H    0.983    12 C    0.982    28 H    0.977
                            27 H    0.976
    15   7 N    2.974 --    12 C    0.995    29 H    0.933    30 H    0.928
    16   7 N    3.580 --    11 C    1.408     5 C    1.068    17 C    0.900
    17   6 C    3.886 --    31 H    0.977    32 H    0.973    33 H    0.967
                            16 N    0.900
    18   1 H    1.005 --     1 C    0.984
    19   1 H    1.002 --     1 C    0.978
    20   1 H    1.002 --     1 C    0.978
    21   1 H    0.832 --     7 O    0.780
    22   1 H    0.919 --    10 N    0.865
    23   1 H    0.994 --    13 C    0.977
    24   1 H    0.998 --    13 C    0.984
    25   1 H    0.999 --    13 C    0.978
    26   1 H    0.996 --    14 C    0.983
    27   1 H    0.996 --    14 C    0.976
    28   1 H    0.997 --    14 C    0.977
    29   1 H    0.946 --    15 N    0.933
    30   1 H    0.942 --    15 N    0.928
    31   1 H    0.999 --    17 C    0.977
    32   1 H    1.020 --    17 C    0.973
    33   1 H    1.014 --    17 C    0.967
 ---------------------------------------------------------------------------

           -------------------------------------------------
          | TOTAL ENERGY              -57.858624394001 Eh   |
          | GRADIENT NORM               0.000818096421 Eh/α |
          | HOMO-LUMO GAP               2.070075943198 eV   |
           -------------------------------------------------

 * finished run on 2023/06/20 at 15:05:28.674
