   * xtb version 6.5.1 (579679a) compiled by 'ehlert@majestix' on 2022-07-11
          program call               : /lustre/hpc/kemi/ree/PhD/git/ReactivityQM/dep/xtb-6.5.1/bin/xtb --gfn 1 /lustre/hpc/kemi/ree/PhD/git/ReactivityQM/calculations/R02deprot/reac01prodE06/conf13/R02deprot_reac01prodE06_conf13_gfn1.xyz --opt --vfukui --chrg -2 --uhf 0 --alpb DMSO

   ID    Z sym.   atoms
    1    6 C      1, 3, 5, 6, 8, 11-15, 17, 19, 22, 23
    2    8 O      2, 4, 7, 9, 18, 24
    3    7 N      10, 16, 20, 21, 25
    4    1 H      26-42

      * Solvation model:               ALPB
        Solvent                        DMSO
        Solvent mass                       7.8130E+01 g/mol
          :  Hamiltonian                  GFN1-xTB          :
 * total energy  :   -83.5797722 Eh     change       -0.6745893E-10 Eh
 * total energy  :   -83.5903988 Eh     change       -0.1062659E-01 Eh
 * total energy  :   -83.5942709 Eh     change       -0.3872086E-02 Eh
 * total energy  :   -83.5949303 Eh     change       -0.6594143E-03 Eh
 * total energy  :   -83.5955581 Eh     change       -0.6277665E-03 Eh
 * total energy  :   -83.5959800 Eh     change       -0.4219710E-03 Eh
 * total energy  :   -83.5964334 Eh     change       -0.4533804E-03 Eh
 * total energy  :   -83.5969111 Eh     change       -0.4776635E-03 Eh
 * total energy  :   -83.5973117 Eh     change       -0.4005785E-03 Eh
 * total energy  :   -83.5976036 Eh     change       -0.2919805E-03 Eh
 * total energy  :   -83.5998118 Eh     change       -0.4556789E-05 Eh
 * total energy  :   -83.5998209 Eh     change       -0.9074017E-05 Eh
 * total energy  :   -83.5998263 Eh     change       -0.5392762E-05 Eh
 * total energy  :   -83.5998338 Eh     change       -0.7459923E-05 Eh
 * total energy  :   -83.5998404 Eh     change       -0.6624650E-05 Eh
 * total energy  :   -83.5998477 Eh     change       -0.7274535E-05 Eh
 * total energy  :   -83.5998550 Eh     change       -0.7350732E-05 Eh
 * total energy  :   -83.5998575 Eh     change       -0.2465290E-05 Eh
 * total energy  :   -83.5998595 Eh     change       -0.1981331E-05 Eh
   *** GEOMETRY OPTIMIZATION CONVERGED AFTER 74 ITERATIONS ***

 final structure:
================
42
 xtb: 6.5.1 (579679a)
C           -6.47660143999933       -0.41658110130145       -0.40633278026795
O           -5.13526751739515       -0.39418082698284       -0.87969800754642
C           -4.17355703624753       -0.23439321368358        0.08081964753609
O           -4.50657707478578       -0.11967312687585        1.25024164485823
C           -2.78616467461971       -0.22382465736915       -0.41563204943967
C           -2.41094555327993       -0.16348185687966       -1.75077382294168
O           -3.28514364476962       -0.17494195801291       -2.82683040336469
C           -0.98505354247913        0.08725037891646       -2.10087948735420
O           -0.66815480950889        0.36835702880191       -3.29165662770933
N           -0.09237631862363        0.04091541610697       -1.11963325095640
C           -0.49626523199903       -0.35548565429823        0.20988452680226
C           -0.06776589554387       -1.84175289456138        0.41405981293401
C            0.32599945284292        0.56101676194613        1.20393173398613
C            0.13747470102617        0.12268659457782        2.65703701685278
C           -0.16286357960686        2.00601888834335        1.02428453064464
N            1.71578133328802        0.48064446573809        0.76721476461079
C            2.81952633955847        0.68886721946335        1.50505197157128
O            2.83608665029129        0.97814483511060        2.71258948348059
C            4.07137330927569        0.52773384962745        0.75218359308501
N            5.29300290678370        0.73084822649810        1.19382513819449
N            6.13544855055031        0.49019724496300        0.14268952264097
C            5.39533618490277        0.16091896869117       -0.86681465108631
C            5.84715565976868       -0.19800782261047       -2.23183787126807
O            4.08171131718389        0.16322530194497       -0.56348284933598
N           -1.88525168238431       -0.23480381057944        0.58962251745734
H           -6.63162540241373       -1.26436029677623        0.26825295102739
H           -6.71350015405610        0.50862524525576        0.12825595457343
H           -7.12394920259954       -0.51587397154057       -1.27565911040131
H           -4.19849257781248       -0.29864105396274       -2.53821531666315
H           -0.43446610408827       -2.21917639243127        1.36767364835872
H           -0.49659150354179       -2.44461873073735       -0.38579995758340
H            1.01776816013417       -1.93388276724059        0.37693545511400
H            0.44258924055170        0.90524401438110        3.35161707337120
H           -0.92221516437345       -0.08773684604965        2.81485551797691
H            0.71299979927747       -0.77521495845972        2.87838539810676
H            0.40098449295502        2.68965134248135        1.65901458237581
H           -1.21952116124784        2.05967735488453        1.28989977934607
H           -0.04356744140110        2.30913569656423       -0.01680147732902
H            1.80635207996585        0.35521980033320       -0.24145886863242
H            6.93214442141373       -0.15275941074921       -2.27634752301934
H            5.51721859569077       -1.20522002825092       -2.48639350068287
H            5.42696451731254        0.49162174472480       -2.96407770932586

          :  Hamiltonian                  GFN1-xTB          :
         :: total energy             -83.599859453923 Eh    ::
         :: gradient norm              0.000477037915 Eh/a0 ::
         :: HOMO-LUMO gap              0.179361438921 eV    ::
         :: SCC energy               -84.321623226856 Eh    ::
         :: -> Gsolv                  -0.273794855689 Eh    ::
         :: repulsion energy           0.748744704759 Eh    ::

    * Orbital Energies and Occupations

         #    Occupation            Energy/Eh            Energy/eV
      -------------------------------------------------------------
         1        2.0000           -0.8271194             -22.5071
       ...           ...                  ...                  ...
        56        2.0000           -0.4369767             -11.8907
        57        2.0000           -0.4266015             -11.6084
        58        2.0000           -0.4226732             -11.5015
        59        2.0000           -0.4190773             -11.4037
        60        2.0000           -0.4178811             -11.3711
        61        2.0000           -0.4050370             -11.0216
        62        2.0000           -0.3992839             -10.8651
        63        2.0000           -0.3895252             -10.5995
        64        2.0000           -0.3731545             -10.1540
        65        2.0000           -0.3446778              -9.3792
        66        2.0000           -0.3210324              -8.7357
        67        2.0000           -0.3129605              -8.5161
        68        1.9396           -0.2785306              -7.5792 (HOMO)
        69        0.0604           -0.2719392              -7.3998 (LUMO)
        70                         -0.2376947              -6.4680
        71                         -0.2276552              -6.1948
        72                         -0.1551687              -4.2224
        73                         -0.1416471              -3.8544
        74                         -0.1307520              -3.5579
        75                         -0.1165512              -3.1715
        76                         -0.0909951              -2.4761
        77                         -0.0841300              -2.2893
        78                         -0.0772915              -2.1032
        79                         -0.0705260              -1.9191
       ...                                ...                  ...
       134                          0.7450766              20.2746
      -------------------------------------------------------------
                  HL-Gap            0.0065914 Eh            0.1794 eV

Wiberg/Mayer (AO) data.
largest (>0.10) Wiberg bond orders for each atom

     #   Z sym  total        # sym  WBO       # sym  WBO       # sym  WBO
 ---------------------------------------------------------------------------
     1   6 C    3.895 --    28 H    0.987    26 H    0.981    27 H    0.981
                             2 O    0.918
     2   8 O    2.161 --     3 C    1.021     1 C    0.918     4 O    0.108
     3   6 C    3.809 --     4 O    1.615     5 C    1.053     2 O    1.021
     4   8 O    1.879 --     3 C    1.615     2 O    0.108
     5   6 C    3.959 --     6 C    1.391    25 N    1.304     3 C    1.053
     6   6 C    3.777 --     5 C    1.391     8 C    1.033     7 O    0.995
                            25 N    0.160
     7   8 O    1.969 --     6 C    0.995    29 H    0.847
     8   6 C    3.936 --    10 N    1.406     9 O    1.402     6 C    1.033
     9   8 O    1.681 --     8 C    1.402    10 N    0.170
    10   7 N    2.891 --     8 C    1.406    11 C    1.003     9 O    0.170
    11   6 C    3.958 --    25 N    1.004    10 N    1.003    12 C    0.954
                            13 C    0.918
    12   6 C    3.980 --    31 H    0.986    30 H    0.986    32 H    0.986
                            11 C    0.954
    13   6 C    3.914 --    14 C    1.003    15 C    0.988    16 N    0.926
                            11 C    0.918
    14   6 C    3.997 --    13 C    1.003    35 H    0.986    33 H    0.984
                            34 H    0.982
    15   6 C    3.994 --    13 C    0.988    36 H    0.988    38 H    0.983
                            37 H    0.982
    16   7 N    3.371 --    17 C    1.265    13 C    0.926    39 H    0.885
                            18 O    0.166
    17   6 C    3.899 --    18 O    1.476    16 N    1.265    19 C    1.037
    18   8 O    1.772 --    17 C    1.476    16 N    0.166
    19   6 C    3.781 --    20 N    1.529    17 C    1.037    24 O    1.014
    20   7 N    2.869 --    19 C    1.529    21 N    1.185
    21   7 N    2.979 --    22 C    1.627    20 N    1.185
    22   6 C    3.847 --    21 N    1.627    24 O    1.061    23 C    1.027
    23   6 C    3.992 --    22 C    1.027    40 H    0.985    41 H    0.968
                            42 H    0.968
    24   8 O    2.259 --    22 C    1.061    19 C    1.014
    25   7 N    2.756 --     5 C    1.304    11 C    1.004     6 C    0.160
    26   1 H    1.014 --     1 C    0.981
    27   1 H    1.015 --     1 C    0.981
    28   1 H    1.015 --     1 C    0.987
    29   1 H    0.898 --     7 O    0.847
    30   1 H    1.018 --    12 C    0.986
    31   1 H    1.018 --    12 C    0.986
    32   1 H    1.016 --    12 C    0.986
    33   1 H    1.022 --    14 C    0.984
    34   1 H    1.031 --    14 C    0.982
    35   1 H    1.012 --    14 C    0.986
    36   1 H    1.009 --    15 C    0.988
    37   1 H    1.024 --    15 C    0.982
    38   1 H    1.025 --    15 C    0.983
    39   1 H    0.995 --    16 N    0.885
    40   1 H    1.002 --    23 C    0.985
    41   1 H    0.999 --    23 C    0.968
    42   1 H    0.999 --    23 C    0.968
 ---------------------------------------------------------------------------

           -------------------------------------------------
          | TOTAL ENERGY              -83.599859453923 Eh   |
          | GRADIENT NORM               0.000477037915 Eh/α |
          | HOMO-LUMO GAP               0.179361438921 eV   |
           -------------------------------------------------

 * finished run on 2023/06/20 at 17:45:05.612
