   * xtb version 6.5.1 (579679a) compiled by 'ehlert@majestix' on 2022-07-11
          program call               : /lustre/hpc/kemi/ree/PhD/git/ReactivityQM/dep/xtb-6.5.1/bin/xtb --gfn 1 /lustre/hpc/kemi/ree/PhD/git/ReactivityQM/calculations/R02methylcation/reac01prodE08/conf13/R02methylcation_reac01prodE08_conf13_gfn1.xyz --opt --vfukui --chrg -2 --uhf 0 --alpb DMSO

   ID    Z sym.   atoms
    1    6 C      1, 3, 5, 7-10, 12, 14, 15, 18, 19, 22, 24
    2    8 O      2, 4, 13, 20, 23, 25
    3    7 N      6, 11, 16, 17, 21
    4    1 H      26-42

      * Solvation model:               ALPB
        Solvent                        DMSO
        Solvent mass                       7.8130E+01 g/mol
          :  Hamiltonian                  GFN1-xTB          :
 * total energy  :   -83.6219876 Eh     change       -0.7702283E-11 Eh
 * total energy  :   -83.6365243 Eh     change       -0.1453670E-01 Eh
 * total energy  :   -83.6419790 Eh     change       -0.5454693E-02 Eh
 * total energy  :   -83.6429911 Eh     change       -0.1012127E-02 Eh
 * total energy  :   -83.6436224 Eh     change       -0.6313003E-03 Eh
 * total energy  :   -83.6438665 Eh     change       -0.2441061E-03 Eh
 * total energy  :   -83.6440619 Eh     change       -0.1954365E-03 Eh
 * total energy  :   -83.6442515 Eh     change       -0.1895803E-03 Eh
 * total energy  :   -83.6444882 Eh     change       -0.2366621E-03 Eh
 * total energy  :   -83.6449359 Eh     change       -0.4477336E-03 Eh
 * total energy  :   -83.6735572 Eh     change       -0.2642884E-04 Eh
 * total energy  :   -83.6735689 Eh     change       -0.1168799E-04 Eh
 * total energy  :   -83.6735924 Eh     change       -0.2355705E-04 Eh
 * total energy  :   -83.6736019 Eh     change       -0.9439810E-05 Eh
 * total energy  :   -83.6736124 Eh     change       -0.1051563E-04 Eh
 * total energy  :   -83.6736253 Eh     change       -0.1292391E-04 Eh
 * total energy  :   -83.6736343 Eh     change       -0.8958619E-05 Eh
 * total energy  :   -83.6736400 Eh     change       -0.5763322E-05 Eh
 * total energy  :   -83.6736439 Eh     change       -0.3861039E-05 Eh
   *** GEOMETRY OPTIMIZATION CONVERGED AFTER 58 ITERATIONS ***

 final structure:
================
42
 xtb: 6.5.1 (579679a)
C            6.75620071616558       -1.62814026320020        0.88427426294074
O            5.58403969533156       -0.92174610008704        1.25327075842986
C            4.58078624606837       -0.91838923085753        0.32889404842711
O            4.72884944877978       -1.50869026608860       -0.73843589978765
C            3.39134205211379       -0.18714241673378        0.72138914046802
N            2.40565990104593       -0.20140909757175       -0.25641173164000
C            1.28692498684604        0.39388045216202       -0.05566147143252
C            0.20434370136839        0.44999235466078       -1.12470117586067
C            0.57331866446150        1.61524915693093       -2.06864616071575
C            0.20820070414016       -0.87928828322189       -1.89914649750143
N           -1.06701419335447        0.68289866876315       -0.44428550314599
C           -2.14246597495098        0.79253442888070       -1.17515394753421
O           -2.29302730442418        0.76284229920864       -2.41952275207527
C           -3.43905061649929        1.01733160829860       -0.31177750110870
C           -4.20696614864506        2.23908170924914       -0.81717241133016
N           -3.14915497102178        1.14861047853107        1.12643247877657
N           -3.74941754769235        0.02369110036347        1.76437126372041
C           -4.38191573955159       -0.61817190098725        0.86811387244841
C           -5.20626871924157       -1.83557724412932        1.09810746070994
O           -4.29673285609048       -0.13895563988927       -0.39095643037861
N            1.03001291024945        1.07032781127918        1.11456782734699
C            1.89884049324212        1.16712068762728        2.15836817883821
O            1.58112401750090        1.78600726744640        3.17851213577316
C            3.23042172398915        0.47769272190084        1.96447674462815
O            4.07105670694351        0.53331805503038        2.88834260058173
H            7.21257441833131       -1.18810402084213       -0.00868780626117
H            6.53110174144462       -2.68006911830318        0.67940721676955
H            7.45049311314327       -1.55875044708462        1.72107546960482
H            1.58057212701782        1.46714582366670       -2.45996867302359
H            0.54270685051082        2.55854945203705       -1.52298344242118
H           -0.12493766787127        1.66645809968625       -2.90275892835876
H            1.21450128382853       -1.08888892249856       -2.26468707455818
H           -0.10254018164511       -1.69285327463463       -1.24266477975783
H           -0.47329776426947       -0.82874165136017       -2.74700533845039
H           -2.13065490037129        1.04621407487280        1.26490624943163
H           -4.37529921688514        2.14177701515723       -1.88907129499264
H           -3.62243146798242        3.13672712699783       -0.62442895843888
H           -5.16432482649940        2.31967943891694       -0.30527366644315
H           -4.85633335726347       -2.65226661779891        0.46728222720344
H           -6.24562589606712       -1.63409007943279        0.84016935115769
H           -5.14647074446506       -2.13024670961641        2.14297429179062
H            0.11085859227693        1.49012945265617        1.20446886617447

          :  Hamiltonian                  GFN1-xTB          :
         :: total energy             -83.673643906302 Eh    ::
         :: gradient norm              0.000367101681 Eh/a0 ::
         :: HOMO-LUMO gap              2.445017342074 eV    ::
         :: SCC energy               -84.413019674417 Eh    ::
         :: -> Gsolv                  -0.260890263643 Eh    ::
         :: repulsion energy           0.765520482390 Eh    ::

    * Orbital Energies and Occupations

         #    Occupation            Energy/Eh            Energy/eV
      -------------------------------------------------------------
         1        2.0000           -0.7895446             -21.4846
       ...           ...                  ...                  ...
        56        2.0000           -0.4466314             -12.1535
        57        2.0000           -0.4420199             -12.0280
        58        2.0000           -0.4373194             -11.9001
        59        2.0000           -0.4244016             -11.5486
        60        2.0000           -0.4229832             -11.5100
        61        2.0000           -0.4183540             -11.3840
        62        2.0000           -0.3950521             -10.7499
        63        2.0000           -0.3911730             -10.6444
        64        2.0000           -0.3671676              -9.9911
        65        2.0000           -0.3596733              -9.7872
        66        2.0000           -0.3500443              -9.5252
        67        2.0000           -0.3470955              -9.4449
        68        2.0000           -0.3452060              -9.3935 (HOMO)
        69                         -0.2553532              -6.9485 (LUMO)
        70                         -0.2142440              -5.8299
        71                         -0.2134294              -5.8077
        72                         -0.1822036              -4.9580
        73                         -0.1659233              -4.5150
        74                         -0.1253855              -3.4119
        75                         -0.1171920              -3.1890
        76                         -0.0971293              -2.6430
        77                         -0.0928018              -2.5253
        78                         -0.0865300              -2.3546
        79                         -0.0837511              -2.2790
       ...                                ...                  ...
       134                          0.7591188              20.6567
      -------------------------------------------------------------
                  HL-Gap            0.0898527 Eh            2.4450 eV

Wiberg/Mayer (AO) data.
largest (>0.10) Wiberg bond orders for each atom

     #   Z sym  total        # sym  WBO       # sym  WBO       # sym  WBO
 ---------------------------------------------------------------------------
     1   6 C    3.905 --    28 H    0.987    26 H    0.980    27 H    0.980
                             2 O    0.931
     2   8 O    2.150 --     3 C    1.032     1 C    0.931     4 O    0.105
     3   6 C    3.848 --     4 O    1.563     5 C    1.132     2 O    1.032
     4   8 O    1.841 --     3 C    1.563     2 O    0.105
     5   6 C    3.920 --    24 C    1.281     6 N    1.141     3 C    1.132
                            25 O    0.130
     6   7 N    3.018 --     7 C    1.630     5 C    1.141
     7   6 C    3.922 --     6 N    1.630    21 N    1.104     8 C    0.973
     8   6 C    3.973 --    10 C    0.984    11 N    0.982     7 C    0.973
                             9 C    0.969
     9   6 C    3.994 --    29 H    0.988    30 H    0.987    31 H    0.981
                             8 C    0.969
    10   6 C    3.996 --    33 H    0.987    32 H    0.986     8 C    0.984
                            34 H    0.984
    11   7 N    2.939 --    12 C    1.527     8 C    0.982    13 O    0.212
    12   6 C    3.935 --    11 N    1.527    13 O    1.436    14 C    0.887
    13   8 O    1.792 --    12 C    1.436    11 N    0.212
    14   6 C    3.839 --    15 C    0.991    16 N    0.960    12 C    0.887
                            20 O    0.881
    15   6 C    3.996 --    14 C    0.991    38 H    0.987    37 H    0.986
                            36 H    0.983
    16   7 N    3.034 --    17 N    1.006    14 C    0.960    35 H    0.909
    17   7 N    2.969 --    18 C    1.748    16 N    1.006    20 O    0.124
    18   6 C    3.905 --    17 N    1.748    20 O    1.050    19 C    1.017
    19   6 C    3.995 --    18 C    1.017    41 H    0.986    39 H    0.972
                            40 H    0.971
    20   8 O    2.143 --    18 C    1.050    14 C    0.881    17 N    0.124
    21   7 N    3.450 --    22 C    1.188     7 C    1.104    42 H    0.884
                            23 O    0.136
    22   6 C    3.887 --    23 O    1.549    21 N    1.188    24 C    0.974
    23   8 O    1.830 --    22 C    1.549    21 N    0.136
    24   6 C    3.945 --    25 O    1.497     5 C    1.281    22 C    0.974
    25   8 O    1.802 --    24 C    1.497     5 C    0.130
    26   1 H    1.015 --     1 C    0.980
    27   1 H    1.016 --     1 C    0.980
    28   1 H    1.017 --     1 C    0.987
    29   1 H    1.010 --     9 C    0.988
    30   1 H    1.009 --     9 C    0.987
    31   1 H    1.021 --     9 C    0.981
    32   1 H    1.020 --    10 C    0.986
    33   1 H    1.011 --    10 C    0.987
    34   1 H    1.021 --    10 C    0.984
    35   1 H    1.014 --    16 N    0.909
    36   1 H    1.018 --    15 C    0.983
    37   1 H    1.010 --    15 C    0.986
    38   1 H    1.012 --    15 C    0.987
    39   1 H    1.003 --    19 C    0.972
    40   1 H    1.003 --    19 C    0.971
    41   1 H    1.004 --    19 C    0.986
    42   1 H    0.981 --    21 N    0.884
 ---------------------------------------------------------------------------

           -------------------------------------------------
          | TOTAL ENERGY              -83.673643906302 Eh   |
          | GRADIENT NORM               0.000367101681 Eh/α |
          | HOMO-LUMO GAP               2.445017342074 eV   |
           -------------------------------------------------

 * finished run on 2023/06/21 at 17:19:07.544
