   * xtb version 6.5.1 (579679a) compiled by 'ehlert@majestix' on 2022-07-11
          program call               : /lustre/hpc/kemi/ree/PhD/git/ReactivityQM/dep/xtb-6.5.1/bin/xtb --gfn 1 /lustre/hpc/kemi/ree/PhD/git/ReactivityQM/calculations/R02methylcation/reac01prodN15/conf18/R02methylcation_reac01prodN15_conf18_gfn1.xyz --opt --vfukui --chrg 0 --uhf 0 --alpb DMSO

   ID    Z sym.   atoms
    1    6 C      1, 3, 5, 7-10, 12, 14, 17, 18, 21, 23, 24
    2    8 O      2, 4, 13, 19, 22, 25
    3    7 N      6, 11, 15, 16, 20
    4    1 H      26-42

      * Solvation model:               ALPB
        Solvent                        DMSO
        Solvent mass                       7.8130E+01 g/mol
          :  Hamiltonian                  GFN1-xTB          :
 * total energy  :   -82.8915663 Eh     change       -0.1503508E-10 Eh
 * total energy  :   -82.9125132 Eh     change       -0.2094690E-01 Eh
 * total energy  :   -82.9311759 Eh     change       -0.1866266E-01 Eh
 * total energy  :   -82.9497141 Eh     change       -0.1853818E-01 Eh
 * total energy  :   -82.9741160 Eh     change       -0.2440199E-01 Eh
 * total energy  :   -82.8533982 Eh     change        0.1207179E+00 Eh
 * total energy  :   -82.9924002 Eh     change       -0.1390020E+00 Eh
 * total energy  :   -82.9925838 Eh     change       -0.1836085E-03 Eh
 * total energy  :   -82.9989460 Eh     change       -0.6362252E-02 Eh
 * total energy  :   -83.0001736 Eh     change       -0.1227613E-02 Eh
 * total energy  :   -83.0036425 Eh     change       -0.1029622E-04 Eh
 * total energy  :   -83.0036489 Eh     change       -0.6409176E-05 Eh
 * total energy  :   -83.0036557 Eh     change       -0.6851210E-05 Eh
 * total energy  :   -83.0036660 Eh     change       -0.1029209E-04 Eh
 * total energy  :   -83.0036757 Eh     change       -0.9711962E-05 Eh
 * total energy  :   -83.0036884 Eh     change       -0.1263040E-04 Eh
 * total energy  :   -83.0036932 Eh     change       -0.4851433E-05 Eh
 * total energy  :   -83.0036994 Eh     change       -0.6201268E-05 Eh
 * total energy  :   -83.0037026 Eh     change       -0.3190683E-05 Eh
   *** GEOMETRY OPTIMIZATION CONVERGED AFTER 41 ITERATIONS ***

 final structure:
================
42
 xtb: 6.5.1 (579679a)
C           -6.14579235388311       -0.84020569395866        1.69303062888563
O           -4.91256224418410       -0.17350763086900        1.38856720440613
C           -4.03175090047310       -0.85075142735879        0.67275885602315
O           -4.19933556541738       -1.97089166119756        0.26178954993592
C           -2.76215285544847       -0.06160477346553        0.38812386647094
N           -1.65333028675504       -0.90739846736007        0.15370976641771
C           -0.59809256476446       -0.42024405562970       -0.36644723609829
C            0.62072849915434       -1.29702920031599       -0.56572087975822
C            0.65939822543741       -1.72600022317924       -2.04041562343544
C            0.55893204896503       -2.51267195123962        0.36365705588317
N            1.79603636193923       -0.48202274681994       -0.24466958074648
C            3.06546511528476       -0.93355589715692       -0.37005194392052
O            3.39548722871280       -1.99864881993340       -0.85643838309454
C            4.02961041180875        0.06260895834772        0.16280123018658
N            3.72841520366820        1.18441477768812        0.74530545401342
N            4.90601652518445        1.77857674542173        1.08535659053143
C            5.85108216939134        0.98008430347088        0.68934258601966
C            7.31191320298795        1.17075110939037        0.82289369848870
O            5.36045266049034       -0.12080117725449        0.10125033979782
N           -0.51349709824131        0.86162087742113       -0.87261858414884
C           -1.60492940431711        1.67924743277792       -1.04686708304351
O           -1.58702479373067        2.60637507988652       -1.82750712254004
C           -2.80158902495566        1.31137605971289       -0.22078911202427
C           -4.07437842976080        2.04366081337740       -0.57093723640751
O           -2.52129843672438        1.08903502952340        1.13931849515765
H           -6.76856240541576       -0.11547212393638        2.21171164997776
H           -5.95176232482823       -1.70437621668315        2.33101556072795
H           -6.62762689897776       -1.16846060922833        0.77001666054966
H           -0.27307892954324       -2.22810820649951       -2.29319237703809
H            1.48849018180913       -2.40952083467086       -2.21071397807078
H            0.77952702991162       -0.85424875276626       -2.68087594067734
H           -0.35280571779879       -3.07364728757981        0.16475946836001
H            1.42049136610417       -3.15492142263683        0.19189987173763
H            0.55436946080507       -2.18597558750099        1.40247144823964
H            1.65699321985802        0.37361670690950        0.27187797100063
H            7.73827643146073        0.36843324142263        1.42563460465265
H            7.78150895085009        1.13969007843435       -0.16027704744945
H            7.51525783437683        2.12899238461965        1.29503318739312
H            0.29937917367428        1.10529186232436       -1.41905784825942
H           -4.46036683135812        1.68094418374329       -1.52193954954824
H           -4.82189954759607        1.90212240931151        0.20443511512794
H           -3.85599268770648        3.10707871345930       -0.66824533372289

          :  Hamiltonian                  GFN1-xTB          :
         :: total energy             -83.003702599191 Eh    ::
         :: gradient norm              0.000640839911 Eh/a0 ::
         :: HOMO-LUMO gap              3.715822978741 eV    ::
         :: SCC energy               -83.775584644008 Eh    ::
         :: -> Gsolv                  -0.049555678686 Eh    ::
         :: repulsion energy           0.797240229922 Eh    ::

    * Orbital Energies and Occupations

         #    Occupation            Energy/Eh            Energy/eV
      -------------------------------------------------------------
         1        2.0000           -0.8654389             -23.5498
       ...           ...                  ...                  ...
        55        2.0000           -0.5087556             -13.8439
        56        2.0000           -0.5077090             -13.8155
        57        2.0000           -0.5064774             -13.7820
        58        2.0000           -0.5042209             -13.7205
        59        2.0000           -0.4850842             -13.1998
        60        2.0000           -0.4799799             -13.0609
        61        2.0000           -0.4707391             -12.8095
        62        2.0000           -0.4690005             -12.7622
        63        2.0000           -0.4660692             -12.6824
        64        2.0000           -0.4625914             -12.5878
        65        2.0000           -0.4544047             -12.3650
        66        2.0000           -0.4508435             -12.2681
        67        2.0000           -0.4501560             -12.2494 (HOMO)
        68                         -0.3136020              -8.5335 (LUMO)
        69                         -0.3047803              -8.2935
        70                         -0.2901939              -7.8966
        71                         -0.2612926              -7.1101
        72                         -0.2585092              -7.0344
        73                         -0.2016635              -5.4875
        74                         -0.1437330              -3.9112
        75                         -0.1428755              -3.8878
        76                         -0.1343735              -3.6565
        77                         -0.1309666              -3.5638
        78                         -0.1253451              -3.4108
       ...                                ...                  ...
       134                          0.7252957              19.7363
      -------------------------------------------------------------
                  HL-Gap            0.1365540 Eh            3.7158 eV

Wiberg/Mayer (AO) data.
largest (>0.10) Wiberg bond orders for each atom

     #   Z sym  total        # sym  WBO       # sym  WBO       # sym  WBO
 ---------------------------------------------------------------------------
     1   6 C    3.859 --    26 H    0.985    28 H    0.980    27 H    0.979
                             2 O    0.883
     2   8 O    2.227 --     3 C    1.143     1 C    0.883     4 O    0.142
     3   6 C    3.851 --     4 O    1.688     2 O    1.143     5 C    0.936
     4   8 O    1.940 --     3 C    1.688     2 O    0.142
     5   6 C    3.869 --     6 N    1.026     3 C    0.936    25 O    0.908
                            23 C    0.834
     6   7 N    3.026 --     7 C    1.712     5 C    1.026
     7   6 C    3.928 --     6 N    1.712    20 N    1.107     8 C    0.979
     8   6 C    3.934 --    10 C    0.990     7 C    0.979     9 C    0.975
                            11 N    0.924
     9   6 C    3.987 --    29 H    0.985    31 H    0.984    30 H    0.977
                             8 C    0.975
    10   6 C    3.989 --     8 C    0.990    34 H    0.985    32 H    0.983
                            33 H    0.982
    11   7 N    3.331 --    12 C    1.238     8 C    0.924    35 H    0.894
                            13 O    0.174
    12   6 C    3.915 --    13 O    1.604    11 N    1.238    14 C    0.990
    13   8 O    1.919 --    12 C    1.604    11 N    0.174
    14   6 C    3.876 --    15 N    1.609    19 O    1.065    12 C    0.990
    15   7 N    3.018 --    14 C    1.609    16 N    1.201
    16   7 N    2.981 --    17 C    1.603    15 N    1.201
    17   6 C    3.870 --    16 N    1.603    19 O    1.083    18 C    1.032
    18   6 C    3.986 --    17 C    1.032    38 H    0.983    37 H    0.964
                            36 H    0.962
    19   8 O    2.332 --    17 C    1.083    14 C    1.065
    20   7 N    3.416 --    21 C    1.142     7 C    1.107    39 H    0.885
                            22 O    0.126
    21   6 C    3.893 --    22 O    1.656    20 N    1.142    23 C    0.980
    22   8 O    1.934 --    21 C    1.656    20 N    0.126
    23   6 C    3.861 --    24 C    1.002    21 C    0.980    25 O    0.894
                             5 C    0.834
    24   6 C    3.985 --    23 C    1.002    41 H    0.980    40 H    0.980
                            42 H    0.974
    25   8 O    1.966 --     5 C    0.908    23 C    0.894
    26   1 H    1.008 --     1 C    0.985
    27   1 H    1.004 --     1 C    0.979
    28   1 H    1.005 --     1 C    0.980
    29   1 H    1.001 --     9 C    0.985
    30   1 H    1.009 --     9 C    0.977
    31   1 H    1.000 --     9 C    0.984
    32   1 H    1.009 --    10 C    0.983
    33   1 H    1.006 --    10 C    0.982
    34   1 H    1.004 --    10 C    0.985
    35   1 H    0.951 --    11 N    0.894
    36   1 H    0.996 --    18 C    0.962
    37   1 H    0.996 --    18 C    0.964
    38   1 H    0.998 --    18 C    0.983
    39   1 H    0.930 --    20 N    0.885
    40   1 H    0.999 --    24 C    0.980
    41   1 H    1.008 --    24 C    0.980
    42   1 H    1.002 --    24 C    0.974
 ---------------------------------------------------------------------------

           -------------------------------------------------
          | TOTAL ENERGY              -83.003702599191 Eh   |
          | GRADIENT NORM               0.000640839911 Eh/α |
          | HOMO-LUMO GAP               3.715822978741 eV   |
           -------------------------------------------------

 * finished run on 2023/06/21 at 17:57:00.502
