   * xtb version 6.5.1 (579679a) compiled by 'ehlert@majestix' on 2022-07-11
          program call               : /lustre/hpc/kemi/ree/PhD/git/ReactivityQM/dep/xtb-6.5.1/bin/xtb --gfn 1 /lustre/hpc/kemi/ree/PhD/git/ReactivityQM/calculations/R02methylcation/reac01prodN05/conf04/R02methylcation_reac01prodN05_conf04_gfn1.xyz --opt --vfukui --chrg 0 --uhf 0 --alpb DMSO

   ID    Z sym.   atoms
    1    6 C      1, 3, 5, 6, 8, 11-14, 16, 18, 21, 22, 25
    2    8 O      2, 4, 7, 9, 17, 23
    3    7 N      10, 15, 19, 20, 24
    4    1 H      26-42

      * Solvation model:               ALPB
        Solvent                        DMSO
        Solvent mass                       7.8130E+01 g/mol
          :  Hamiltonian                  GFN1-xTB          :
 * total energy  :   -82.9806203 Eh     change       -0.4105516E-10 Eh
 * total energy  :   -82.9924188 Eh     change       -0.1179845E-01 Eh
 * total energy  :   -82.9976002 Eh     change       -0.5181462E-02 Eh
 * total energy  :   -82.9992355 Eh     change       -0.1635262E-02 Eh
 * total energy  :   -83.0005276 Eh     change       -0.1292050E-02 Eh
 * total energy  :   -83.0012473 Eh     change       -0.7197815E-03 Eh
 * total energy  :   -83.0016594 Eh     change       -0.4120484E-03 Eh
 * total energy  :   -83.0018976 Eh     change       -0.2382347E-03 Eh
 * total energy  :   -83.0020272 Eh     change       -0.1295924E-03 Eh
 * total energy  :   -83.0021194 Eh     change       -0.9222532E-04 Eh
 * total energy  :   -83.0026202 Eh     change       -0.2230801E-03 Eh
 * total energy  :   -83.0026314 Eh     change       -0.1119418E-04 Eh
 * total energy  :   -83.0026574 Eh     change       -0.2601503E-04 Eh
 * total energy  :   -83.0026720 Eh     change       -0.1458200E-04 Eh
 * total energy  :   -83.0025469 Eh     change        0.1251176E-03 Eh
 * total energy  :   -83.0026866 Eh     change       -0.1397405E-03 Eh
 * total energy  :   -83.0026951 Eh     change       -0.8494844E-05 Eh
 * total energy  :   -83.0027023 Eh     change       -0.7172211E-05 Eh
 * total energy  :   -83.0027066 Eh     change       -0.4364413E-05 Eh
   *** GEOMETRY OPTIMIZATION CONVERGED AFTER 34 ITERATIONS ***

 final structure:
================
42
 xtb: 6.5.1 (579679a)
C           -4.92134930551960        2.11590267499431       -1.68449511507093
O           -4.41426545813224        1.25120412622006       -0.66885819466458
C           -3.08500269296324        1.10765685163514       -0.62888269743910
O           -2.36193985282984        1.68513076770462       -1.42602993904714
C           -2.63040339759926        0.17868139051908        0.41340893234232
C           -3.51457652802393       -0.78691750609224        0.96940429716097
O           -4.72948657468665       -0.85669182928079        0.77630900779331
C           -2.87023312301803       -1.82727795205474        1.85091668250039
O           -3.46194024664520       -2.68776333163394        2.46970937837739
N           -1.48529578249410       -1.78554279190685        1.89683925237596
C           -0.68899780425961       -0.81854535240416        1.38837423770306
C            0.80247791745518       -0.97023198266331        1.66676441391861
C            1.20425929388792       -0.17550173786001        2.91487435081438
C            1.18913884527832       -2.44564787258329        1.86977660984824
N            1.56044383119587       -0.48071270157262        0.51812926980991
C            1.33312535382834       -0.98548594771061       -0.72052736401009
O            0.41252172777317       -1.73689224300486       -0.99135504729710
C            2.29363183465732       -0.48540941866448       -1.72711149132862
N            2.35045722404055       -0.77195621515666       -2.99034315826582
N            3.39458638766278       -0.06786925454459       -3.50614993057537
C            3.91177934380200        0.60800448036920       -2.52683476821057
C            5.06053407205348        1.53769921748102       -2.56932649636502
O            3.26071749967212        0.38892412291691       -1.37318863466190
N           -1.25648385196364        0.16678150133183        0.72595854139773
C           -0.48447309965125        1.36520481414864        0.37834471919458
H           -6.00140676562663        2.15355564631494       -1.55302120044610
H           -4.49401498961102        3.11590308313122       -1.57672908949724
H           -4.67424439619887        1.72645628949733       -2.67575412625938
H           -1.06767577380940       -2.50629082946205        2.46392697068351
H            0.63553838071317       -0.53527960231688        3.77042932974529
H            2.26424259325795       -0.32645830271217        3.10838966703262
H            1.02123752394471        0.88954791100142        2.79556596578051
H            2.27463455613204       -2.51657356765639        1.84569884787876
H            0.84956290575512       -2.81060736607925        2.83668369348740
H            0.77824465569656       -3.06689903118855        1.07537369280264
H            2.40974450426962        0.02595488777487        0.69818033374405
H            5.71659111117921        1.35437857083899       -1.72019697925078
H            4.70527879360992        2.56677769745581       -2.50470327002408
H            5.60838177899148        1.40604582426872       -3.49932257005006
H           -1.11867585638860        2.23803101976697        0.51050396958543
H           -0.14569924359065        1.30863630474564       -0.65445597809295
H            0.36903460816360        1.45407965442466        1.03702688658835

          :  Hamiltonian                  GFN1-xTB          :
         :: total energy             -83.002706627229 Eh    ::
         :: gradient norm              0.000353320477 Eh/a0 ::
         :: HOMO-LUMO gap              2.516770076898 eV    ::
         :: SCC energy               -83.785028674550 Eh    ::
         :: -> Gsolv                  -0.084220784552 Eh    ::
         :: repulsion energy           0.810110006272 Eh    ::

    * Orbital Energies and Occupations

         #    Occupation            Energy/Eh            Energy/eV
      -------------------------------------------------------------
         1        2.0000           -0.8699084             -23.6714
       ...           ...                  ...                  ...
        55        2.0000           -0.5099439             -13.8763
        56        2.0000           -0.5095698             -13.8661
        57        2.0000           -0.4932719             -13.4226
        58        2.0000           -0.4901662             -13.3381
        59        2.0000           -0.4885812             -13.2950
        60        2.0000           -0.4853215             -13.2063
        61        2.0000           -0.4756387             -12.9428
        62        2.0000           -0.4720978             -12.8464
        63        2.0000           -0.4665872             -12.6965
        64        2.0000           -0.4573719             -12.4457
        65        2.0000           -0.4550991             -12.3839
        66        2.0000           -0.4250437             -11.5660
        67        2.0000           -0.4136422             -11.2558 (HOMO)
        68                         -0.3211526              -8.7390 (LUMO)
        69                         -0.3191282              -8.6839
        70                         -0.3025286              -8.2322
        71                         -0.2603414              -7.0842
        72                         -0.2378146              -6.4713
        73                         -0.2059385              -5.6039
        74                         -0.1656621              -4.5079
        75                         -0.1472092              -4.0058
        76                         -0.1437875              -3.9127
        77                         -0.1428970              -3.8884
        78                         -0.1338704              -3.6428
       ...                                ...                  ...
       134                          0.7506150              20.4253
      -------------------------------------------------------------
                  HL-Gap            0.0924896 Eh            2.5168 eV

Wiberg/Mayer (AO) data.
largest (>0.10) Wiberg bond orders for each atom

     #   Z sym  total        # sym  WBO       # sym  WBO       # sym  WBO
 ---------------------------------------------------------------------------
     1   6 C    3.879 --    26 H    0.986    27 H    0.980    28 H    0.980
                             2 O    0.905
     2   8 O    2.198 --     3 C    1.100     1 C    0.905     4 O    0.119
     3   6 C    3.865 --     4 O    1.582     2 O    1.100     5 C    1.086
     4   8 O    1.894 --     3 C    1.582     2 O    0.119
     5   6 C    3.852 --     6 C    1.261     3 C    1.086    24 N    1.052
                             7 O    0.140
     6   6 C    3.945 --     7 O    1.569     5 C    1.261     8 C    0.954
     7   8 O    1.879 --     6 C    1.569     5 C    0.140
     8   6 C    3.868 --     9 O    1.657    10 N    1.092     6 C    0.954
     9   8 O    1.928 --     8 C    1.657    10 N    0.117
    10   7 N    3.455 --    11 C    1.206     8 C    1.092    29 H    0.879
                             9 O    0.117
    11   6 C    3.915 --    24 N    1.436    10 N    1.206    12 C    0.976
    12   6 C    3.938 --    14 C    0.985    13 C    0.981    11 C    0.976
                            15 N    0.937
    13   6 C    3.983 --    30 H    0.982    12 C    0.981    31 H    0.979
                            32 H    0.976
    14   6 C    3.986 --    12 C    0.985    35 H    0.980    33 H    0.980
                            34 H    0.979
    15   7 N    3.329 --    16 C    1.229    12 C    0.937    36 H    0.887
                            17 O    0.169
    16   6 C    3.913 --    17 O    1.594    15 N    1.229    18 C    1.001
    17   8 O    1.897 --    16 C    1.594    15 N    0.169
    18   6 C    3.875 --    19 N    1.617    23 O    1.047    16 C    1.001
    19   7 N    3.004 --    18 C    1.617    20 N    1.204
    20   7 N    2.982 --    21 C    1.604    19 N    1.204
    21   6 C    3.866 --    20 N    1.604    23 O    1.074    22 C    1.032
    22   6 C    3.985 --    21 C    1.032    39 H    0.981    37 H    0.969
                            38 H    0.957
    23   8 O    2.318 --    21 C    1.074    18 C    1.047
    24   7 N    3.593 --    11 C    1.436     5 C    1.052    25 C    0.920
    25   6 C    3.913 --    40 H    0.976    42 H    0.976    41 H    0.969
                            24 N    0.920
    26   1 H    1.012 --     1 C    0.986
    27   1 H    1.010 --     1 C    0.980
    28   1 H    1.009 --     1 C    0.980
    29   1 H    0.933 --    10 N    0.879
    30   1 H    0.998 --    13 C    0.982
    31   1 H    0.993 --    13 C    0.979
    32   1 H    0.999 --    13 C    0.976
    33   1 H    0.998 --    14 C    0.980
    34   1 H    0.997 --    14 C    0.979
    35   1 H    1.004 --    14 C    0.980
    36   1 H    0.928 --    15 N    0.887
    37   1 H    0.996 --    22 C    0.969
    38   1 H    0.996 --    22 C    0.957
    39   1 H    0.998 --    22 C    0.981
    40   1 H    1.005 --    25 C    0.976
    41   1 H    1.014 --    25 C    0.969
    42   1 H    1.008 --    25 C    0.976
 ---------------------------------------------------------------------------

           -------------------------------------------------
          | TOTAL ENERGY              -83.002706627229 Eh   |
          | GRADIENT NORM               0.000353320477 Eh/α |
          | HOMO-LUMO GAP               2.516770076898 eV   |
           -------------------------------------------------

 * finished run on 2023/06/21 at 17:35:07.969
