   * xtb version 6.5.1 (579679a) compiled by 'ehlert@majestix' on 2022-07-11
          program call               : /lustre/hpc/kemi/ree/PhD/git/ReactivityQM/dep/xtb-6.5.1/bin/xtb --gfn 1 /lustre/hpc/kemi/ree/PhD/git/ReactivityQM/calculations/R02deprot/reac01prodN08/conf18/R02deprot_reac01prodN08_conf18_gfn1.xyz --opt --vfukui --chrg 0 --uhf 0 --alpb DMSO

   ID    Z sym.   atoms
    1    6 C      1, 3, 5, 7-10, 12, 14, 17-19, 22, 24
    2    8 O      2, 4, 13, 20, 23, 25
    3    7 N      6, 11, 15, 16, 21
    4    1 H      26-42

      * Solvation model:               ALPB
        Solvent                        DMSO
        Solvent mass                       7.8130E+01 g/mol
          :  Hamiltonian                  GFN1-xTB          :
 * total energy  :   -82.9420931 Eh     change       -0.4651213E-10 Eh
 * total energy  :   -82.9608973 Eh     change       -0.1880421E-01 Eh
 * total energy  :   -82.9680644 Eh     change       -0.7167116E-02 Eh
 * total energy  :   -82.9694008 Eh     change       -0.1336402E-02 Eh
 * total energy  :   -82.9703180 Eh     change       -0.9171506E-03 Eh
 * total energy  :   -82.9706682 Eh     change       -0.3502666E-03 Eh
 * total energy  :   -82.9709529 Eh     change       -0.2846806E-03 Eh
 * total energy  :   -82.9711506 Eh     change       -0.1977439E-03 Eh
 * total energy  :   -82.9712934 Eh     change       -0.1427762E-03 Eh
 * total energy  :   -82.9714274 Eh     change       -0.1339820E-03 Eh
 * total energy  :   -82.9725005 Eh     change       -0.5652510E-05 Eh
 * total energy  :   -82.9725089 Eh     change       -0.8388937E-05 Eh
 * total energy  :   -82.9725152 Eh     change       -0.6326553E-05 Eh
 * total energy  :   -82.9725245 Eh     change       -0.9275283E-05 Eh
 * total energy  :   -82.9725217 Eh     change        0.2855377E-05 Eh
 * total energy  :   -82.9725413 Eh     change       -0.1960327E-04 Eh
 * total energy  :   -82.9725478 Eh     change       -0.6486770E-05 Eh
 * total energy  :   -82.9725598 Eh     change       -0.1200100E-04 Eh
 * total energy  :   -82.9725643 Eh     change       -0.4526710E-05 Eh
   *** GEOMETRY OPTIMIZATION CONVERGED AFTER 55 ITERATIONS ***

 final structure:
================
42
 xtb: 6.5.1 (579679a)
C            7.24962973564652        0.33551370525018       -0.37385174859911
O            5.88083049178827        0.63356969847334       -0.66549138066095
C            4.96735422514409       -0.06348994037942        0.04571796445591
O            5.30372887096413       -0.88462073129087        0.87294332334812
C            3.56457130617754        0.27104931516414       -0.28079387878321
N            2.65960591397378       -0.47662212374055        0.42849647741527
C            1.38920717183544       -0.24663486197777        0.20358624953252
C            0.41311479899910       -1.09961673166539        1.00606954523701
C            0.58369359244076       -0.80598699038958        2.50121120710672
C            0.65455300332389       -2.58291966506917        0.70506823258767
N           -0.92926047322329       -0.70759076896393        0.56831070401996
C           -2.06327158471866       -1.22349841865962        1.01912981865812
O           -2.20790487459944       -2.09750539774465        1.85414050343448
C           -3.25596171429412       -0.57708714931336        0.35211313539692
N           -3.25633428171453        0.37548179717175       -0.53206361028929
N           -4.55772375213827        0.59681099281384       -0.80320025579423
C           -4.93470104341827        1.62770236538761       -1.74554895931965
C           -5.30916481434627       -0.21169392123208       -0.08691826819377
C           -6.77646646102901       -0.32658405671008       -0.04603438556258
O           -4.51305896349446       -0.96010342219358        0.64659272050602
N            0.86276705634756        0.63926546417921       -0.63398723671118
C            1.68546283764060        1.43367825467071       -1.38001062416500
O            1.24338257150559        2.27793035362505       -2.17160165260210
C            3.13111213760171        1.21774677502834       -1.17976015879209
O            3.93504937086748        2.00728398310471       -1.92970576085592
H            7.46718639263708        0.55629710401649        0.67436874073373
H            7.45422898558511       -0.72010106954787       -0.57037809062920
H            7.85597741520429        0.96289509136521       -1.02303613081591
H            1.62196684047604       -0.98966070593153        2.77619263833960
H            0.34150412359959        0.23588566526725        2.70653467022039
H           -0.06522614619476       -1.44617832511349        3.09639877795045
H            1.69682122580828       -2.81629349501913        0.92120733935031
H            0.01031638803397       -3.21168074269977        1.31718324711903
H            0.45649403187384       -2.78718697920292       -0.34625298895967
H           -0.92596030970407        0.03387144178680       -0.13709952714883
H           -4.17152050368415        1.67889038348534       -2.51966644798036
H           -5.90062944665333        1.37207177333442       -2.17283533038833
H           -5.00043512924262        2.57956632250522       -1.21821180377504
H           -7.20574180347081        0.56984090417236        0.40421211142573
H           -7.05514369276452       -1.19663999696414        0.54524618160608
H           -7.17528706095611       -0.41802956038688       -1.05621455794552
H            4.87523456817205        1.82823266339368       -1.77205879046867

          :  Hamiltonian                  GFN1-xTB          :
         :: total energy             -82.972564279926 Eh    ::
         :: gradient norm              0.000980154168 Eh/a0 ::
         :: HOMO-LUMO gap              0.787812176857 eV    ::
         :: SCC energy               -83.754050754687 Eh    ::
         :: -> Gsolv                  -0.099532201672 Eh    ::
         :: repulsion energy           0.806346797793 Eh    ::

    * Orbital Energies and Occupations

         #    Occupation            Energy/Eh            Energy/eV
      -------------------------------------------------------------
         1        2.0000           -0.9311233             -25.3372
       ...           ...                  ...                  ...
        55        2.0000           -0.4966688             -13.5150
        56        2.0000           -0.4952223             -13.4757
        57        2.0000           -0.4881939             -13.2844
        58        2.0000           -0.4846598             -13.1883
        59        2.0000           -0.4810374             -13.0897
        60        2.0000           -0.4701043             -12.7922
        61        2.0000           -0.4570427             -12.4368
        62        2.0000           -0.4546488             -12.3716
        63        2.0000           -0.4428438             -12.0504
        64        2.0000           -0.4274774             -11.6323
        65        2.0000           -0.4078155             -11.0972
        66        2.0000           -0.3822633             -10.4019
        67        2.0000           -0.3769625             -10.2577 (HOMO)
        68        0.0000           -0.3480109              -9.4699 (LUMO)
        69                         -0.3389087              -9.2222
        70                         -0.2841714              -7.7327
        71                         -0.2345389              -6.3821
        72                         -0.2270354              -6.1779
        73                         -0.1972266              -5.3668
        74                         -0.1834811              -4.9928
        75                         -0.1709983              -4.6531
        76                         -0.1288651              -3.5066
        77                         -0.1215378              -3.3072
        78                         -0.1174099              -3.1949
       ...                                ...                  ...
       134                          0.7369544              20.0535
      -------------------------------------------------------------
                  HL-Gap            0.0289516 Eh            0.7878 eV

Wiberg/Mayer (AO) data.
largest (>0.10) Wiberg bond orders for each atom

     #   Z sym  total        # sym  WBO       # sym  WBO       # sym  WBO
 ---------------------------------------------------------------------------
     1   6 C    3.876 --    28 H    0.987    26 H    0.980    27 H    0.980
                             2 O    0.898
     2   8 O    2.186 --     3 C    1.062     1 C    0.898     4 O    0.120
     3   6 C    3.835 --     4 O    1.648     2 O    1.062     5 C    1.031
     4   8 O    1.910 --     3 C    1.648     2 O    0.120
     5   6 C    3.962 --    24 C    1.478     6 N    1.196     3 C    1.031
     6   7 N    2.997 --     7 C    1.469     5 C    1.196
     7   6 C    3.960 --     6 N    1.469    21 N    1.369     8 C    0.967
     8   6 C    3.914 --    10 C    0.984     9 C    0.983     7 C    0.967
                            11 N    0.908
     9   6 C    3.992 --    30 H    0.986    31 H    0.984    29 H    0.983
                             8 C    0.983
    10   6 C    3.992 --    34 H    0.986     8 C    0.984    33 H    0.984
                            32 H    0.983
    11   7 N    3.420 --    12 C    1.337     8 C    0.908    35 H    0.857
                            13 O    0.209
    12   6 C    3.931 --    13 O    1.577    11 N    1.337    14 C    0.945
    13   8 O    1.911 --    12 C    1.577    11 N    0.209
    14   6 C    3.830 --    15 N    1.610    20 O    1.061    12 C    0.945
    15   7 N    2.984 --    14 C    1.610    16 N    1.144
    16   7 N    3.631 --    18 C    1.428    15 N    1.144    17 C    0.913
    17   6 C    3.889 --    37 H    0.978    36 H    0.974    38 H    0.964
                            16 N    0.913
    18   6 C    3.847 --    16 N    1.428    20 O    1.156    19 C    1.039
    19   6 C    3.963 --    18 C    1.039    40 H    0.972    41 H    0.952
                            39 H    0.943
    20   8 O    2.384 --    18 C    1.156    14 C    1.061
    21   7 N    3.021 --     7 C    1.369    22 C    1.216    23 O    0.126
    22   6 C    3.927 --    23 O    1.512    21 N    1.216    24 C    1.065
    23   8 O    1.799 --    22 C    1.512    21 N    0.126
    24   6 C    3.903 --     5 C    1.478    25 O    1.068    22 C    1.065
    25   8 O    2.053 --    24 C    1.068    42 H    0.820
    26   1 H    1.010 --     1 C    0.980
    27   1 H    1.010 --     1 C    0.980
    28   1 H    1.011 --     1 C    0.987
    29   1 H    1.012 --     9 C    0.983
    30   1 H    1.004 --     9 C    0.986
    31   1 H    1.008 --     9 C    0.984
    32   1 H    1.013 --    10 C    0.983
    33   1 H    1.008 --    10 C    0.984
    34   1 H    1.004 --    10 C    0.986
    35   1 H    0.973 --    11 N    0.857
    36   1 H    0.992 --    17 C    0.974
    37   1 H    0.991 --    17 C    0.978
    38   1 H    0.990 --    17 C    0.964
    39   1 H    0.986 --    19 C    0.943
    40   1 H    0.987 --    19 C    0.972
    41   1 H    0.988 --    19 C    0.952
    42   1 H    0.872 --    25 O    0.820
 ---------------------------------------------------------------------------

           -------------------------------------------------
          | TOTAL ENERGY              -82.972564279926 Eh   |
          | GRADIENT NORM               0.000980154168 Eh/α |
          | HOMO-LUMO GAP               0.787812176857 eV   |
           -------------------------------------------------

 * finished run on 2023/06/20 at 18:15:19.967
