   * xtb version 6.5.1 (579679a) compiled by 'ehlert@majestix' on 2022-07-11
          program call               : /lustre/hpc/kemi/ree/PhD/git/ReactivityQM/dep/xtb-6.5.1/bin/xtb --gfn 1 /lustre/hpc/kemi/ree/PhD/git/ReactivityQM/calculations/R02oxygendeprot/reac01/conf18/R02oxygendeprot_reac01_conf18_gfn1.xyz --opt --vfukui --chrg -1 --uhf 0 --alpb DMSO

   ID    Z sym.   atoms
    1    6 C      1, 3, 5, 7-10, 12, 14, 17, 18, 21, 23
    2    8 O      2, 4, 13, 19, 22, 24
    3    7 N      6, 11, 15, 16, 20
    4    1 H      25-38

      * Solvation model:               ALPB
        Solvent                        DMSO
        Solvent mass                       7.8130E+01 g/mol
          :  Hamiltonian                  GFN1-xTB          :
 * total energy  :   -79.6024964 Eh     change       -0.3524292E-10 Eh
 * total energy  :   -79.6147610 Eh     change       -0.1226465E-01 Eh
 * total energy  :   -79.6189849 Eh     change       -0.4223874E-02 Eh
 * total energy  :   -79.6198343 Eh     change       -0.8494192E-03 Eh
 * total energy  :   -79.6204794 Eh     change       -0.6450509E-03 Eh
 * total energy  :   -79.6207583 Eh     change       -0.2789347E-03 Eh
 * total energy  :   -79.6209235 Eh     change       -0.1651685E-03 Eh
 * total energy  :   -79.6210175 Eh     change       -0.9398022E-04 Eh
 * total energy  :   -79.6210817 Eh     change       -0.6424286E-04 Eh
 * total energy  :   -79.6211363 Eh     change       -0.5460625E-04 Eh
 * total energy  :   -79.6215833 Eh     change       -0.9580332E-05 Eh
 * total energy  :   -79.6215902 Eh     change       -0.6910935E-05 Eh
 * total energy  :   -79.6215983 Eh     change       -0.8051687E-05 Eh
 * total energy  :   -79.6216093 Eh     change       -0.1105810E-04 Eh
 * total energy  :   -79.6216190 Eh     change       -0.9648375E-05 Eh
 * total energy  :   -79.6216246 Eh     change       -0.5573921E-05 Eh
 * total energy  :   -79.6216315 Eh     change       -0.6941228E-05 Eh
 * total energy  :   -79.6216372 Eh     change       -0.5743716E-05 Eh
 * total energy  :   -79.6216411 Eh     change       -0.3825628E-05 Eh
   *** GEOMETRY OPTIMIZATION CONVERGED AFTER 35 ITERATIONS ***

 final structure:
================
38
 xtb: 6.5.1 (579679a)
C            5.52216345961434        2.22159499973258       -0.51556124062766
O            4.37528395150355        1.42569984448444       -0.25206807474408
C            4.47430500067947        0.10989172341664       -0.61648722116226
O            5.49566976053644       -0.30740194821101       -1.13964542290908
C            3.27515576428173       -0.64827981187151       -0.30175001781773
N            2.25558412700811        0.07525246879633        0.28871035466247
C            1.15992330716473       -0.49628190632496        0.62119992096115
C            0.04698601727822        0.28196856382724        1.29107420901731
C            0.31591826424500        1.78443307066748        1.16776288075988
C           -0.05368280814837       -0.14034531714917        2.76424525461993
N           -1.20322375553073       -0.05779929195711        0.59312063456312
C           -2.40981864390916        0.43292846669884        0.93077216435128
O           -2.64701350979953        1.16998632411684        1.87276998675997
C           -3.45591706860464       -0.05053684737318       -0.01231797498269
N           -3.25777689047795       -0.80934520233783       -1.04764941705439
N           -4.47404851843695       -1.00384858985565       -1.63185309749490
C           -5.33597791057922       -0.34913945313980       -0.91589716145693
C           -6.79493954875734       -0.23824952296294       -1.13389669696983
O           -4.75491121070652        0.27436142623271        0.12034126624279
N            0.94885861769506       -1.84790464403496        0.42225707171995
C            1.86821621026469       -2.68444870519399       -0.15996102855426
O            1.60346399361675       -3.87543666472721       -0.30089583729971
C            3.16942180820028       -2.03736626981920       -0.58232401386319
O            4.03700596991360       -2.74403755403100       -1.12419557509257
H            5.29310479168583        3.23239874324124       -0.18064942093948
H            5.75204435314499        2.23040981761659       -1.58618589785926
H            6.39256616200520        1.84072906842234        0.02907138536007
H            0.34092222419083        2.07300780852180        0.11761551630520
H            1.28170450309557        2.01267264336363        1.61691481707427
H           -0.46001316357222        2.35106636326441        1.67817940447885
H            0.90367493645906        0.03298666474552        3.25399696179170
H           -0.82133186611971        0.43747044229671        3.27506056500163
H           -0.30201736893755       -1.19812178516947        2.83406814284915
H           -1.14475035788847       -0.61414283922558       -0.24779728393203
H           -7.33218872507309       -0.60806984626983       -0.26062513464293
H           -7.06991550526014        0.80610779136312       -1.28129538752452
H           -7.07965592739974       -0.81630545484168       -2.00992928603915
H            0.08521055661726       -2.26590457631635        0.72536665444359

          :  Hamiltonian                  GFN1-xTB          :
         :: total energy             -79.621641060576 Eh    ::
         :: gradient norm              0.000652952190 Eh/a0 ::
         :: HOMO-LUMO gap              1.679886773241 eV    ::
         :: SCC energy               -80.349031158286 Eh    ::
         :: -> Gsolv                  -0.123878815141 Eh    ::
         :: repulsion energy           0.750159849747 Eh    ::

    * Orbital Energies and Occupations

         #    Occupation            Energy/Eh            Energy/eV
      -------------------------------------------------------------
         1        2.0000           -0.8600751             -23.4038
       ...           ...                  ...                  ...
        52        2.0000           -0.4847422             -13.1905
        53        2.0000           -0.4785012             -13.0207
        54        2.0000           -0.4654356             -12.6651
        55        2.0000           -0.4598734             -12.5138
        56        2.0000           -0.4564576             -12.4208
        57        2.0000           -0.4558263             -12.4037
        58        2.0000           -0.4475708             -12.1790
        59        2.0000           -0.4409993             -12.0002
        60        2.0000           -0.4402574             -11.9800
        61        2.0000           -0.4375369             -11.9060
        62        2.0000           -0.4180863             -11.3767
        63        2.0000           -0.3786107             -10.3025
        64        2.0000           -0.3667662              -9.9802 (HOMO)
        65                         -0.3050315              -8.3003 (LUMO)
        66                         -0.2711074              -7.3772
        67                         -0.2536862              -6.9032
        68                         -0.2409162              -6.5557
        69                         -0.1973018              -5.3689
        70                         -0.1933078              -5.2602
        71                         -0.1407736              -3.8306
        72                         -0.1223202              -3.3285
        73                         -0.1178484              -3.2068
        74                         -0.1137377              -3.0950
        75                         -0.1090817              -2.9683
       ...                                ...                  ...
       124                          0.7661524              20.8481
      -------------------------------------------------------------
                  HL-Gap            0.0617347 Eh            1.6799 eV

Wiberg/Mayer (AO) data.
largest (>0.10) Wiberg bond orders for each atom

     #   Z sym  total        # sym  WBO       # sym  WBO       # sym  WBO
 ---------------------------------------------------------------------------
     1   6 C    3.899 --    25 H    0.987    27 H    0.980    26 H    0.980
                             2 O    0.927
     2   8 O    2.137 --     3 C    1.026     1 C    0.927     4 O    0.109
     3   6 C    3.850 --     4 O    1.593     5 C    1.118     2 O    1.026
     4   8 O    1.869 --     3 C    1.593     2 O    0.109
     5   6 C    3.915 --    23 C    1.266     6 N    1.154     3 C    1.118
                            24 O    0.130
     6   7 N    3.030 --     7 C    1.637     5 C    1.154
     7   6 C    3.933 --     6 N    1.637    20 N    1.088     8 C    0.979
     8   6 C    3.930 --     9 C    0.993    10 C    0.983     7 C    0.979
                            11 N    0.911
     9   6 C    3.992 --     8 C    0.993    28 H    0.985    29 H    0.984
                            30 H    0.984
    10   6 C    3.990 --    31 H    0.986    33 H    0.985     8 C    0.983
                            32 H    0.980
    11   7 N    3.353 --    12 C    1.267     8 C    0.911    34 H    0.896
                            13 O    0.181
    12   6 C    3.919 --    13 O    1.587    11 N    1.267    14 C    0.984
    13   8 O    1.905 --    12 C    1.587    11 N    0.181
    14   6 C    3.873 --    15 N    1.614    19 O    1.064    12 C    0.984
    15   7 N    3.016 --    14 C    1.614    16 N    1.196
    16   7 N    2.981 --    17 C    1.609    15 N    1.196
    17   6 C    3.872 --    16 N    1.609    19 O    1.081    18 C    1.031
    18   6 C    3.987 --    17 C    1.031    37 H    0.983    35 H    0.964
                            36 H    0.963
    19   8 O    2.328 --    17 C    1.081    14 C    1.064
    20   7 N    3.422 --    21 C    1.157     7 C    1.088    38 H    0.898
                            22 O    0.135
    21   6 C    3.876 --    22 O    1.581    20 N    1.157    23 C    0.966
    22   8 O    1.859 --    21 C    1.581    20 N    0.135
    23   6 C    3.942 --    24 O    1.527     5 C    1.266    21 C    0.966
    24   8 O    1.831 --    23 C    1.527     5 C    0.130
    25   1 H    1.016 --     1 C    0.987
    26   1 H    1.014 --     1 C    0.980
    27   1 H    1.014 --     1 C    0.980
    28   1 H    1.008 --     9 C    0.985
    29   1 H    1.014 --     9 C    0.984
    30   1 H    1.010 --     9 C    0.984
    31   1 H    1.004 --    10 C    0.986
    32   1 H    1.010 --    10 C    0.980
    33   1 H    1.003 --    10 C    0.985
    34   1 H    0.956 --    11 N    0.896
    35   1 H    0.997 --    18 C    0.964
    36   1 H    0.997 --    18 C    0.963
    37   1 H    0.999 --    18 C    0.983
    38   1 H    0.945 --    20 N    0.898
 ---------------------------------------------------------------------------

           -------------------------------------------------
          | TOTAL ENERGY              -79.621641060576 Eh   |
          | GRADIENT NORM               0.000652952190 Eh/α |
          | HOMO-LUMO GAP               1.679886773241 eV   |
           -------------------------------------------------

 * finished run on 2023/06/21 at 17:00:45.858
