   * xtb version 6.5.1 (579679a) compiled by 'ehlert@majestix' on 2022-07-11
          program call               : /lustre/hpc/kemi/ree/PhD/git/ReactivityQM/dep/xtb-6.5.1/bin/xtb --gfn 1 /lustre/hpc/kemi/ree/PhD/git/ReactivityQM/calculations/R02methylcation/reac01prodN14/conf08/R02methylcation_reac01prodN14_conf08_gfn1.xyz --opt --vfukui --chrg 0 --uhf 0 --alpb DMSO

   ID    Z sym.   atoms
    1    6 C      1, 3, 5, 6, 8, 9, 12-15, 17, 19, 22, 23
    2    8 O      2, 4, 7, 10, 18, 24
    3    7 N      11, 16, 20, 21, 25
    4    1 H      26-42

      * Solvation model:               ALPB
        Solvent                        DMSO
        Solvent mass                       7.8130E+01 g/mol
          :  Hamiltonian                  GFN1-xTB          :
 * total energy  :   -82.8971506 Eh     change       -0.1534772E-11 Eh
 * total energy  :   -82.9124244 Eh     change       -0.1527380E-01 Eh
 * total energy  :   -82.9222364 Eh     change       -0.9812032E-02 Eh
 * total energy  :   -82.9245788 Eh     change       -0.2342402E-02 Eh
 * total energy  :   -82.9269824 Eh     change       -0.2403593E-02 Eh
 * total energy  :   -82.9284161 Eh     change       -0.1433661E-02 Eh
 * total energy  :   -82.9299509 Eh     change       -0.1534845E-02 Eh
 * total energy  :   -82.9311784 Eh     change       -0.1227493E-02 Eh
 * total energy  :   -82.9321450 Eh     change       -0.9665553E-03 Eh
 * total energy  :   -82.9327935 Eh     change       -0.6484844E-03 Eh
 * total energy  :   -82.9806556 Eh     change       -0.8905131E-05 Eh
 * total energy  :   -82.9806674 Eh     change       -0.1182861E-04 Eh
 * total energy  :   -82.9806804 Eh     change       -0.1297456E-04 Eh
 * total energy  :   -82.9806899 Eh     change       -0.9529015E-05 Eh
 * total energy  :   -82.9806993 Eh     change       -0.9383268E-05 Eh
 * total energy  :   -82.9807090 Eh     change       -0.9662039E-05 Eh
 * total energy  :   -82.9807143 Eh     change       -0.5325802E-05 Eh
 * total energy  :   -82.9807198 Eh     change       -0.5507501E-05 Eh
 * total energy  :   -82.9807242 Eh     change       -0.4342386E-05 Eh
   *** GEOMETRY OPTIMIZATION CONVERGED AFTER 101 ITERATIONS ***

 final structure:
================
42
 xtb: 6.5.1 (579679a)
C           -4.78517765510065        3.44544345557518        0.53914902431986
O           -3.77560029640467        2.49673855681696        0.19503946009176
C           -4.14103701472830        1.20024377080902        0.23910330057537
O           -5.25895979395702        0.84543196675566        0.55838873125005
C           -3.05111918079473        0.30967208359075       -0.12217629730098
C           -3.12834521279341       -1.07041619946664       -0.20298432717114
O           -3.90072166208593       -1.96888467476853       -0.03711118986552
C           -1.16721392560176       -2.34481318092174        0.48878743283126
C           -0.86910872882889       -1.61724789640475        1.75413677103224
O           -1.30253301568593       -3.51619200612461        0.34154885652810
N           -1.60772655113304       -1.46439263401287       -0.63830397381838
C           -1.00364699173866       -0.13859850683728       -0.82753579816461
C            0.31051947491428        0.09305266538926       -1.53303806153645
C            0.48460449970909       -0.87867538139051       -2.70704404039565
C            0.32309463739390        1.54096840509870       -2.03120424669550
N            1.45390727148186       -0.04219404755580       -0.61647034096733
C            1.78853828575664       -1.20263208648503       -0.03161096079828
O            1.09677497072115       -2.21483702844241       -0.05638749276507
C            3.07468041093313       -1.15108314980106        0.69571001971133
N            3.63778514446209       -2.09693742701773        1.38148701819923
N            4.80416619122240       -1.58956752157603        1.86540141732588
C            4.88322464564529       -0.36442064712059        1.44581723409593
C            5.96089445296890        0.61439482847190        1.70252123652889
O            3.81922539536946       -0.02421117258057        0.69972774109393
N           -1.81477758252665        0.79698114872155       -0.52879361071004
H           -5.13848289324878        3.27256617440644        1.55955834649681
H           -4.32606181580857        4.42944863914031        0.46359380295717
H           -5.62957343555284        3.37041354730744       -0.15173805936978
H           -0.13719435011142       -2.18230907259353        2.32581730192858
H           -0.51240522386395       -0.60878033838573        1.57059872661451
H           -1.79690467113701       -1.57211172875599        2.32633459486017
H           -1.63901104602990       -2.03112054510575       -1.48234218385431
H           -0.33004761757509       -0.74210336257035       -3.41573551101431
H            1.42778230021605       -0.67070387751517       -3.20868634488822
H            0.49040672149889       -1.91088429856553       -2.36165120735327
H            1.26261960503664        1.74756423915759       -2.53928855255866
H           -0.49935234989797        1.69827066633088       -2.72696730089250
H            0.20913795575678        2.22668304801516       -1.19299415323282
H            2.10809240039329        0.72236000346675       -0.58485818459347
H            5.55324751736243        1.49102517915421        2.20572111827565
H            6.72932216617438        0.15983486828704        2.32330073954010
H            6.39697696759423        0.94202353750301        0.75910896368643

          :  Hamiltonian                  GFN1-xTB          :
         :: total energy             -82.980724164609 Eh    ::
         :: gradient norm              0.000715889131 Eh/a0 ::
         :: HOMO-LUMO gap              2.496987758810 eV    ::
         :: SCC energy               -83.775856999313 Eh    ::
         :: -> Gsolv                  -0.066275019649 Eh    ::
         :: repulsion energy           0.822767768936 Eh    ::

    * Orbital Energies and Occupations

         #    Occupation            Energy/Eh            Energy/eV
      -------------------------------------------------------------
         1        2.0000           -0.8706985             -23.6929
       ...           ...                  ...                  ...
        55        2.0000           -0.5072640             -13.8034
        56        2.0000           -0.5055249             -13.7560
        57        2.0000           -0.5012116             -13.6387
        58        2.0000           -0.4878665             -13.2755
        59        2.0000           -0.4857430             -13.2177
        60        2.0000           -0.4853729             -13.2077
        61        2.0000           -0.4764365             -12.9645
        62        2.0000           -0.4703563             -12.7990
        63        2.0000           -0.4653044             -12.6616
        64        2.0000           -0.4585855             -12.4787
        65        2.0000           -0.4563569             -12.4181
        66        2.0000           -0.4548974             -12.3784
        67        2.0000           -0.4160422             -11.3211 (HOMO)
        68                         -0.3242796              -8.8241 (LUMO)
        69                         -0.3061577              -8.3310
        70                         -0.2963020              -8.0628
        71                         -0.2708978              -7.3715
        72                         -0.2610844              -7.1045
        73                         -0.2058380              -5.6011
        74                         -0.1646692              -4.4809
        75                         -0.1508256              -4.1042
        76                         -0.1437541              -3.9117
        77                         -0.1415854              -3.8527
        78                         -0.1369146              -3.7256
       ...                                ...                  ...
       134                          0.8444053              22.9774
      -------------------------------------------------------------
                  HL-Gap            0.0917626 Eh            2.4970 eV

Wiberg/Mayer (AO) data.
largest (>0.10) Wiberg bond orders for each atom

     #   Z sym  total        # sym  WBO       # sym  WBO       # sym  WBO
 ---------------------------------------------------------------------------
     1   6 C    3.881 --    27 H    0.986    26 H    0.981    28 H    0.980
                             2 O    0.907
     2   8 O    2.168 --     3 C    1.071     1 C    0.907     4 O    0.119
     3   6 C    3.864 --     4 O    1.610     5 C    1.088     2 O    1.071
     4   8 O    1.887 --     3 C    1.610     2 O    0.119
     5   6 C    3.886 --     6 C    1.341    25 N    1.119     3 C    1.088
                             7 O    0.136
     6   6 C    3.869 --     7 O    1.687     5 C    1.341    11 N    0.669
     7   8 O    2.032 --     6 C    1.687     5 C    0.136
     8   6 C    3.823 --    10 O    1.810     9 C    1.013    11 N    0.860
     9   6 C    3.986 --     8 C    1.013    30 H    0.978    29 H    0.968
                            31 H    0.943
    10   8 O    2.043 --     8 C    1.810
    11   7 N    3.559 --    12 C    0.894    32 H    0.870     8 C    0.860
                             6 C    0.669
    12   6 C    3.894 --    25 N    1.761    13 C    0.982    11 N    0.894
    13   6 C    3.934 --    15 C    0.995    14 C    0.984    12 C    0.982
                            16 N    0.912
    14   6 C    3.987 --    13 C    0.984    33 H    0.984    34 H    0.982
                            35 H    0.978
    15   6 C    3.989 --    13 C    0.995    36 H    0.983    37 H    0.983
                            38 H    0.982
    16   7 N    3.359 --    17 C    1.280    13 C    0.912    39 H    0.888
                            18 O    0.169
    17   6 C    3.915 --    18 O    1.540    16 N    1.280    19 C    1.002
    18   8 O    1.915 --    17 C    1.540    16 N    0.169
    19   6 C    3.876 --    20 N    1.616    24 O    1.047    17 C    1.002
    20   7 N    3.002 --    19 C    1.616    21 N    1.204
    21   7 N    2.982 --    22 C    1.605    20 N    1.204
    22   6 C    3.866 --    21 N    1.605    24 O    1.073    23 C    1.033
    23   6 C    3.985 --    22 C    1.033    41 H    0.982    40 H    0.962
                            42 H    0.962
    24   8 O    2.317 --    22 C    1.073    19 C    1.047
    25   7 N    3.048 --    12 C    1.761     5 C    1.119
    26   1 H    1.009 --     1 C    0.981
    27   1 H    1.013 --     1 C    0.986
    28   1 H    1.009 --     1 C    0.980
    29   1 H    1.002 --     9 C    0.968
    30   1 H    1.003 --     9 C    0.978
    31   1 H    0.995 --     9 C    0.943
    32   1 H    0.928 --    11 N    0.870
    33   1 H    0.998 --    14 C    0.984
    34   1 H    0.998 --    14 C    0.982
    35   1 H    1.005 --    14 C    0.978
    36   1 H    0.997 --    15 C    0.983
    37   1 H    1.003 --    15 C    0.983
    38   1 H    1.006 --    15 C    0.982
    39   1 H    0.932 --    16 N    0.888
    40   1 H    0.996 --    23 C    0.962
    41   1 H    0.998 --    23 C    0.982
    42   1 H    0.996 --    23 C    0.962
 ---------------------------------------------------------------------------

           -------------------------------------------------
          | TOTAL ENERGY              -82.980724164609 Eh   |
          | GRADIENT NORM               0.000715889131 Eh/α |
          | HOMO-LUMO GAP               2.496987758810 eV   |
           -------------------------------------------------

 * finished run on 2023/06/21 at 17:54:10.367
