   * xtb version 6.5.1 (579679a) compiled by 'ehlert@majestix' on 2022-07-11
          program call               : /lustre/hpc/kemi/ree/PhD/git/ReactivityQM/dep/xtb-6.5.1/bin/xtb --gfn 1 /lustre/hpc/kemi/ree/PhD/git/ReactivityQM/calculations/RaltegravirCLI/reac01prodN07/conf05/RaltegravirCLI_reac01prodN07_conf05_gfn1.xyz --opt --vfukui --chrg 1 --uhf 0 --alpb DMSO

   ID    Z sym.   atoms
    1    6 C      1, 3, 5, 8, 9
    2    8 O      2, 10
    3   17 Cl     4
    4    7 N      6, 7
    5    1 H      11-16

      * Solvation model:               ALPB
        Solvent                        DMSO
        Solvent mass                       7.8130E+01 g/mol
          :  Hamiltonian                  GFN1-xTB          :
 * total energy  :   -33.4080088 Eh     change       -0.3808509E-11 Eh
 * total energy  :   -33.4157037 Eh     change       -0.7694971E-02 Eh
 * total energy  :   -33.4178791 Eh     change       -0.2175395E-02 Eh
 * total energy  :   -33.4181688 Eh     change       -0.2896358E-03 Eh
 * total energy  :   -33.4183519 Eh     change       -0.1831030E-03 Eh
 * total energy  :   -33.4183775 Eh     change       -0.2566882E-04 Eh
 * total energy  :   -33.4183881 Eh     change       -0.1059468E-04 Eh
 * total energy  :   -33.4183903 Eh     change       -0.2137961E-05 Eh
   *** GEOMETRY OPTIMIZATION CONVERGED AFTER 8 ITERATIONS ***

 final structure:
================
16
 xtb: 6.5.1 (579679a)
C           -2.95953704774274       -0.57605984876641        0.45180278210148
O           -2.56230068724997        0.80574403124865        0.44953077681068
C           -1.36160703096315        1.22283820783281        0.29226590639367
Cl          -1.14159063245182        2.87076455528387        0.31632742435574
C           -0.25184852588345        0.35625097076351        0.10116572092068
N           -0.22675917211031       -0.96354188940464        0.04414871648321
N            1.03067894840809       -1.32579901168761       -0.15415588135975
C            1.75215515240170       -0.22115898575614       -0.21497149850800
C            3.20422682546215       -0.11124179103235       -0.41520757206195
O            0.99307581544833        0.85571117928311       -0.06045799566211
H           -2.70043369769377       -1.03002729928037       -0.50551964650949
H           -4.03624114251763       -0.56752955158151        0.60809109584071
H           -2.44463176620438       -1.10166844926792        1.25686146088933
H            3.62278303446327       -1.08594134056525       -0.65457847207213
H            3.66741865893171        0.27256063789409        0.49568283342960
H            3.41460926770197        0.59910058503617       -1.21504565105167

          :  Hamiltonian                  GFN1-xTB          :
         :: total energy             -33.418390277628 Eh    ::
         :: gradient norm              0.000567503198 Eh/a0 ::
         :: HOMO-LUMO gap              2.434078725390 eV    ::
         :: SCC energy               -33.695311850838 Eh    ::
         :: -> Gsolv                  -0.078465302259 Eh    ::
         :: repulsion energy           0.284028701628 Eh    ::

    * Orbital Energies and Occupations

         #    Occupation            Energy/Eh            Energy/eV
      -------------------------------------------------------------
         1        2.0000           -1.0164166             -27.6581
       ...           ...                  ...                  ...
        15        2.0000           -0.6385333             -17.3754
        16        2.0000           -0.5979308             -16.2705
        17        2.0000           -0.5843961             -15.9022
        18        2.0000           -0.5825923             -15.8531
        19        2.0000           -0.5722085             -15.5706
        20        2.0000           -0.5628120             -15.3149
        21        2.0000           -0.5611307             -15.2691
        22        2.0000           -0.5597999             -15.2329
        23        2.0000           -0.5376823             -14.6311
        24        2.0000           -0.5342141             -14.5367
        25        2.0000           -0.5255424             -14.3007
        26        2.0000           -0.5048641             -13.7381
        27        2.0000           -0.5015108             -13.6468 (HOMO)
        28                         -0.4120600             -11.2127 (LUMO)
        29                         -0.3065413              -8.3414
        30                         -0.2849812              -7.7547
        31                         -0.2644511              -7.1961
        32                         -0.1704470              -4.6381
        33                         -0.1619008              -4.4055
        34                         -0.1405116              -3.8235
        35                         -0.1404314              -3.8213
        36                         -0.1390792              -3.7845
        37                         -0.1103690              -3.0033
        38                         -0.1007673              -2.7420
       ...                                ...                  ...
        57                          0.5369579              14.6114
      -------------------------------------------------------------
                  HL-Gap            0.0894507 Eh            2.4341 eV

Wiberg/Mayer (AO) data.
largest (>0.10) Wiberg bond orders for each atom

     #   Z sym  total        # sym  WBO       # sym  WBO       # sym  WBO
 ---------------------------------------------------------------------------
     1   6 C    3.809 --    12 H    0.977    13 H    0.964    11 H    0.964
                             2 O    0.842
     2   8 O    2.343 --     3 C    1.300     1 C    0.842
     3   6 C    3.887 --     2 O    1.300     4 Cl   1.229     5 C    1.180
     4  17 Cl   1.461 --     3 C    1.229
     5   6 C    3.887 --     6 N    1.451     3 C    1.180    10 O    1.040
     6   7 N    3.042 --     5 C    1.451     7 N    1.338
     7   7 N    2.999 --     8 C    1.457     6 N    1.338
     8   6 C    3.843 --     7 N    1.457    10 O    1.129     9 C    1.050
     9   6 C    3.971 --     8 C    1.050    14 H    0.977    16 H    0.951
                            15 H    0.940
    10   8 O    2.351 --     8 C    1.129     5 C    1.040
    11   1 H    1.003 --     1 C    0.964
    12   1 H    0.998 --     1 C    0.977
    13   1 H    1.003 --     1 C    0.964
    14   1 H    0.992 --     9 C    0.977
    15   1 H    0.986 --     9 C    0.940
    16   1 H    0.987 --     9 C    0.951
 ---------------------------------------------------------------------------

           -------------------------------------------------
          | TOTAL ENERGY              -33.418390277628 Eh   |
          | GRADIENT NORM               0.000567503198 Eh/α |
          | HOMO-LUMO GAP               2.434078725390 eV   |
           -------------------------------------------------

 * finished run on 2023/06/20 at 14:55:31.543
