   * xtb version 6.5.1 (579679a) compiled by 'ehlert@majestix' on 2022-07-11
          program call               : /lustre/hpc/kemi/ree/PhD/git/ReactivityQM/dep/xtb-6.5.1/bin/xtb --gfn 1 /lustre/hpc/kemi/ree/PhD/git/ReactivityQM/calculations/R02deprot/reac01prodE13/conf10/R02deprot_reac01prodE13_conf10_gfn1.xyz --opt --vfukui --chrg -2 --uhf 0 --alpb DMSO

   ID    Z sym.   atoms
    1    6 C      1, 3, 5, 6, 8, 10, 12-15, 17, 19, 22, 23
    2    8 O      2, 4, 7, 9, 18, 24
    3    7 N      11, 16, 20, 21, 25
    4    1 H      26-42

      * Solvation model:               ALPB
        Solvent                        DMSO
        Solvent mass                       7.8130E+01 g/mol
          :  Hamiltonian                  GFN1-xTB          :
 * total energy  :   -83.5681955 Eh     change       -0.8792540E-09 Eh
 * total energy  :   -83.5816881 Eh     change       -0.1349267E-01 Eh
 * total energy  :   -83.5862970 Eh     change       -0.4608824E-02 Eh
 * total energy  :   -83.5868831 Eh     change       -0.5861124E-03 Eh
 * total energy  :   -83.5873396 Eh     change       -0.4564886E-03 Eh
 * total energy  :   -83.5875890 Eh     change       -0.2494530E-03 Eh
 * total energy  :   -83.5878839 Eh     change       -0.2949099E-03 Eh
 * total energy  :   -83.5881263 Eh     change       -0.2423383E-03 Eh
 * total energy  :   -83.5883037 Eh     change       -0.1774423E-03 Eh
 * total energy  :   -83.5884318 Eh     change       -0.1281138E-03 Eh
 * total energy  :   -83.5892738 Eh     change       -0.2311829E-04 Eh
 * total energy  :   -83.5892316 Eh     change        0.4221326E-04 Eh
 * total energy  :   -83.5893042 Eh     change       -0.7259977E-04 Eh
 * total energy  :   -83.5893199 Eh     change       -0.1573042E-04 Eh
 * total energy  :   -83.5893382 Eh     change       -0.1828385E-04 Eh
 * total energy  :   -83.5893454 Eh     change       -0.7239054E-05 Eh
 * total energy  :   -83.5893535 Eh     change       -0.8031708E-05 Eh
 * total energy  :   -83.5893597 Eh     change       -0.6284839E-05 Eh
 * total energy  :   -83.5893645 Eh     change       -0.4790566E-05 Eh
   *** GEOMETRY OPTIMIZATION CONVERGED AFTER 37 ITERATIONS ***

 final structure:
================
42
 xtb: 6.5.1 (579679a)
C           -5.44318167420904        2.20033337737728       -2.96877204249165
O           -4.54782706066250        1.90076916192438       -1.92208564928851
C           -3.54105305712151        0.96994403040918       -2.25469866073034
O           -3.52505662194108        0.50149666087268       -3.41970742541872
C           -2.64609917402718        0.66919838378111       -1.21079511692900
C           -2.64725165821141        1.19388334655767        0.13008755052040
O           -3.61268988804974        2.09566361851935        0.54809829623569
C           -1.67228882596708        0.78259986726997        0.99711542585718
O           -1.68902718410560        1.29027541845818        2.28862498451689
C           -0.67789167349072        0.80645047848067        3.15102114225436
N           -0.68816150008552       -0.09628628975747        0.67098011288405
C           -0.75158553053858       -0.55463173012059       -0.60034933276603
C            0.34441550972004       -1.56116548090082       -0.95428882479166
C            0.33837551003583       -1.85626186568207       -2.45776103280968
C            0.08703177024055       -2.84453691399824       -0.14089647086568
N            1.61190377601196       -0.94277362829443       -0.55604636002569
C            2.81344862488912       -1.65047134041076       -0.58593079894945
O            2.97239547332500       -2.69603704446730       -1.26639685757829
C            3.86858325414754       -1.04018945377567        0.15488965113451
N            5.13900235752876       -1.46012563998797        0.26952308159278
N            5.77232959383395       -0.56046985872358        1.08093295424918
C            4.90817087352091        0.33816526726918        1.42243036781616
C            5.14398297636679        1.51401478690136        2.29806993805459
O            3.67648979816295        0.12450089520358        0.88956649550752
N           -1.62586990294503       -0.24720265766181       -1.51254575590101
H           -6.16387095747988        2.92543585571534       -2.58533080284594
H           -4.92394936315234        2.63541082816836       -3.83365159383966
H           -5.98257810743183        1.30546713307325       -3.30788497287439
H           -3.44271322201538        2.31960423822573        1.47128045396262
H            0.32124427851652        1.04144348478944        2.76214009719040
H           -0.75377864274709       -0.28113071334710        3.28098935031124
H           -0.81844534843254        1.29766202676958        4.11494190409986
H            1.06436267955582       -2.62878304396537       -2.70731220994907
H            0.57837424955710       -0.94908671573985       -3.01410638294892
H           -0.65436215378872       -2.19416069583615       -2.75723018158999
H            0.08910394132066       -2.60504499168989        0.92288177827988
H            0.85240550916115       -3.59418733555141       -0.33998737827966
H           -0.88700513083013       -3.25777158407551       -0.40433377617882
H            1.50330137058899       -0.32522568767074        0.24306040554835
H            4.55851277376481        1.43405481425362        3.21494972985576
H            6.19937822399774        1.56502232185844        2.55581992235464
H            4.85187613299226        2.43414667579339        1.79096598483096

          :  Hamiltonian                  GFN1-xTB          :
         :: total energy             -83.589364537502 Eh    ::
         :: gradient norm              0.000770704050 Eh/a0 ::
         :: HOMO-LUMO gap              0.028707786209 eV    ::
         :: SCC energy               -84.310841699949 Eh    ::
         :: -> Gsolv                  -0.268714217784 Eh    ::
         :: repulsion energy           0.746541010122 Eh    ::

    * Orbital Energies and Occupations

         #    Occupation            Energy/Eh            Energy/eV
      -------------------------------------------------------------
         1        2.0000           -0.7917686             -21.5451
       ...           ...                  ...                  ...
        56        2.0000           -0.4367714             -11.8852
        57        2.0000           -0.4262190             -11.5980
        58        2.0000           -0.4191889             -11.4067
        59        2.0000           -0.3975638             -10.8183
        60        2.0000           -0.3932831             -10.7018
        61        2.0000           -0.3914835             -10.6528
        62        2.0000           -0.3884128             -10.5693
        63        2.0000           -0.3855807             -10.4922
        64        2.0000           -0.3828970             -10.4192
        65        2.0000           -0.3730383             -10.1509
        66        2.0000           -0.3629236              -9.8757
        67        2.0000           -0.3494965              -9.5103
        68        1.2707           -0.2578584              -7.0167 (HOMO)
        69        0.7293           -0.2568034              -6.9880 (LUMO)
        70                         -0.2021527              -5.5009
        71                         -0.1960989              -5.3361
        72                         -0.1559197              -4.2428
        73                         -0.1296445              -3.5278
        74                         -0.1206691              -3.2836
        75                         -0.1083855              -2.9493
        76                         -0.1057529              -2.8777
        77                         -0.0884749              -2.4075
        78                         -0.0826956              -2.2503
        79                         -0.0725926              -1.9753
       ...                                ...                  ...
       134                          0.6905640              18.7912
      -------------------------------------------------------------
                  HL-Gap            0.0010550 Eh            0.0287 eV

Wiberg/Mayer (AO) data.
largest (>0.10) Wiberg bond orders for each atom

     #   Z sym  total        # sym  WBO       # sym  WBO       # sym  WBO
 ---------------------------------------------------------------------------
     1   6 C    3.923 --    26 H    0.987    28 H    0.980    27 H    0.980
                             2 O    0.956
     2   8 O    2.042 --     1 C    0.956     3 C    0.926
     3   6 C    3.726 --     4 O    1.420     5 C    1.284     2 O    0.926
     4   8 O    1.649 --     3 C    1.420
     5   6 C    3.761 --     3 C    1.284     6 C    1.165    25 N    1.105
     6   6 C    3.800 --     8 C    1.470     5 C    1.165     7 O    0.991
     7   8 O    1.958 --     6 C    0.991    29 H    0.855
     8   6 C    3.804 --     6 C    1.470    11 N    1.207     9 O    0.960
     9   8 O    2.069 --     8 C    0.960    10 C    0.939
    10   6 C    3.910 --    32 H    0.986    31 H    0.981    30 H    0.980
                             9 O    0.939
    11   7 N    2.792 --    12 C    1.277     8 C    1.207
    12   6 C    3.951 --    25 N    1.549    11 N    1.277    13 C    0.966
    13   6 C    3.948 --    14 C    0.999    15 C    0.979    12 C    0.966
                            16 N    0.941
    14   6 C    3.995 --    13 C    0.999    34 H    0.986    35 H    0.986
                            33 H    0.983
    15   6 C    3.992 --    38 H    0.988    36 H    0.986    37 H    0.984
                            13 C    0.979
    16   7 N    3.150 --    17 C    1.101    13 C    0.941    39 H    0.910
                            18 O    0.109
    17   6 C    3.756 --    18 O    1.415    19 C    1.169    16 N    1.101
    18   8 O    1.660 --    17 C    1.415    16 N    0.109
    19   6 C    3.671 --    20 N    1.376    17 C    1.169    24 O    0.959
    20   7 N    2.706 --    19 C    1.376    21 N    1.190
    21   7 N    2.981 --    22 C    1.627    20 N    1.190
    22   6 C    3.808 --    21 N    1.627    24 O    1.037    23 C    1.023
    23   6 C    3.995 --    22 C    1.023    41 H    0.986    42 H    0.973
                            40 H    0.971
    24   8 O    2.163 --    22 C    1.037    19 C    0.959
    25   7 N    2.899 --    12 C    1.549     5 C    1.105
    26   1 H    1.021 --     1 C    0.987
    27   1 H    1.021 --     1 C    0.980
    28   1 H    1.021 --     1 C    0.980
    29   1 H    0.887 --     7 O    0.855
    30   1 H    1.021 --    10 C    0.980
    31   1 H    1.020 --    10 C    0.981
    32   1 H    1.018 --    10 C    0.986
    33   1 H    1.026 --    14 C    0.983
    34   1 H    1.017 --    14 C    0.986
    35   1 H    1.024 --    14 C    0.986
    36   1 H    1.018 --    15 C    0.986
    37   1 H    1.017 --    15 C    0.984
    38   1 H    1.008 --    15 C    0.988
    39   1 H    0.986 --    16 N    0.910
    40   1 H    1.001 --    23 C    0.971
    41   1 H    1.005 --    23 C    0.986
    42   1 H    1.001 --    23 C    0.973
 ---------------------------------------------------------------------------

           -------------------------------------------------
          | TOTAL ENERGY              -83.589364537502 Eh   |
          | GRADIENT NORM               0.000770704050 Eh/α |
          | HOMO-LUMO GAP               0.028707786209 eV   |
           -------------------------------------------------

 * finished run on 2023/06/20 at 18:00:50.918
