   * xtb version 6.5.1 (579679a) compiled by 'ehlert@majestix' on 2022-07-11
          program call               : /lustre/hpc/kemi/ree/PhD/git/ReactivityQM/dep/xtb-6.5.1/bin/xtb --gfn 1 /lustre/hpc/kemi/ree/PhD/git/ReactivityQM/calculations/R02methylcation/reac01prodN14/conf15/R02methylcation_reac01prodN14_conf15_gfn1.xyz --opt --vfukui --chrg 0 --uhf 0 --alpb DMSO

   ID    Z sym.   atoms
    1    6 C      1, 3, 5, 6, 8, 9, 12-15, 17, 19, 22, 23
    2    8 O      2, 4, 7, 10, 18, 24
    3    7 N      11, 16, 20, 21, 25
    4    1 H      26-42

      * Solvation model:               ALPB
        Solvent                        DMSO
        Solvent mass                       7.8130E+01 g/mol
          :  Hamiltonian                  GFN1-xTB          :
 * total energy  :   -82.8922787 Eh     change       -0.5670131E-11 Eh
 * total energy  :   -82.9091861 Eh     change       -0.1690743E-01 Eh
 * total energy  :   -82.9198226 Eh     change       -0.1063647E-01 Eh
 * total energy  :   -82.9221714 Eh     change       -0.2348786E-02 Eh
 * total energy  :   -82.9240348 Eh     change       -0.1863382E-02 Eh
 * total energy  :   -82.9251014 Eh     change       -0.1066680E-02 Eh
 * total energy  :   -82.9261400 Eh     change       -0.1038513E-02 Eh
 * total energy  :   -82.9269858 Eh     change       -0.8458794E-03 Eh
 * total energy  :   -82.9277873 Eh     change       -0.8014260E-03 Eh
 * total energy  :   -82.9284527 Eh     change       -0.6654302E-03 Eh
 * total energy  :   -82.9785196 Eh     change       -0.8535116E-04 Eh
 * total energy  :   -82.9785964 Eh     change       -0.7677457E-04 Eh
 * total energy  :   -82.9786467 Eh     change       -0.5030784E-04 Eh
 * total energy  :   -82.9786704 Eh     change       -0.2372834E-04 Eh
 * total energy  :   -82.9786832 Eh     change       -0.1276073E-04 Eh
 * total energy  :   -82.9786930 Eh     change       -0.9815881E-05 Eh
 * total energy  :   -82.9786879 Eh     change        0.5034181E-05 Eh
 * total energy  :   -82.9786961 Eh     change       -0.8127482E-05 Eh
 * total energy  :   -82.9787005 Eh     change       -0.4419589E-05 Eh
   *** GEOMETRY OPTIMIZATION CONVERGED AFTER 93 ITERATIONS ***

 final structure:
================
42
 xtb: 6.5.1 (579679a)
C           -2.70496257161887       -3.65732009741261        2.02287123371111
O           -2.27242542364602       -2.51081496198634        1.28907286091545
C           -3.24530712444439       -1.79461493629760        0.69368107097873
O           -4.42032183179010       -2.09146825849303        0.77512011818341
C           -2.72186101599490       -0.64997243175370       -0.03545280762355
C           -3.47978253287646        0.24531235451526       -0.76609810529818
O           -4.61013249861991        0.49459778647516       -1.06183954309509
C           -2.64199569986737        2.63659786559865       -0.92211190386731
C           -2.75824513579736        2.81269364278361        0.54713185346371
O           -2.82972276750703        3.45255333531120       -1.76752540877659
N           -2.32478076458449        1.25995249326325       -1.35059536271106
C           -1.10500470525665        0.64824230773837       -0.79575170076536
C            0.26300717334402        1.15923181526478       -1.15690229045451
C            0.48065227672332        1.03729139430551       -2.67375243338295
C            0.47539112716165        2.60710722506351       -0.69456480170543
N            1.18732684857991        0.27688881454294       -0.44929245965205
C            2.52918398306990        0.37896623498209       -0.52068235625790
O            3.14556302019172        1.20484360651334       -1.17092081631493
C            3.17905064544679       -0.66506458469727        0.31284255827925
N            2.57016350427453       -1.57209490538458        1.01555324108487
N            3.53818743726400       -2.31790123166147        1.61795571367311
C            4.67680577431055       -1.81736293180707        1.24408107575115
C            6.03203714951631       -2.27061205563733        1.62701110453071
O            4.51596368506298       -0.77196039630661        0.41936627336105
N           -1.35721849018628       -0.37903801560538       -0.09454345504816
H           -3.20249648138343       -4.36800308299908        1.35734383013262
H           -1.81283895143870       -4.10890445501949        2.45304214924774
H           -3.39747229279205       -3.36236320794911        2.81574413292438
H           -3.79056369263203        2.58653109405886        0.82325886531971
H           -2.55365466017303        3.84931827484365        0.80462982884444
H           -2.09802003182966        2.14133409550144        1.08955640419199
H           -2.35638402000600        1.23485979295780       -2.36838641910553
H           -0.24489871807491        1.65604135619819       -3.19807334545260
H            0.36258334473020        0.00128008324577       -2.98555113799923
H            1.48314976046780        1.37676204489235       -2.92836023041454
H            0.32975379566450        2.68248226846438        0.38137889774089
H           -0.22654814533301        3.26473634766815       -1.20198782392423
H            1.48831811605107        2.92216407376062       -0.93971895316352
H            0.77718056965433       -0.45547963220403        0.11909201340428
H            5.95699686221279       -3.13917095584705        2.27664256402501
H            6.55846719734047       -1.47037696079427        2.14714393627897
H            6.60485428478876       -2.52726320610105        0.73613862896852

          :  Hamiltonian                  GFN1-xTB          :
         :: total energy             -82.978700486124 Eh    ::
         :: gradient norm              0.000556665057 Eh/a0 ::
         :: HOMO-LUMO gap              2.622869591431 eV    ::
         :: SCC energy               -83.777010155250 Eh    ::
         :: -> Gsolv                  -0.057058157794 Eh    ::
         :: repulsion energy           0.824990460102 Eh    ::

    * Orbital Energies and Occupations

         #    Occupation            Energy/Eh            Energy/eV
      -------------------------------------------------------------
         1        2.0000           -0.8676172             -23.6091
       ...           ...                  ...                  ...
        55        2.0000           -0.5082382             -13.8299
        56        2.0000           -0.5077586             -13.8168
        57        2.0000           -0.5073555             -13.8058
        58        2.0000           -0.4951285             -13.4731
        59        2.0000           -0.4887929             -13.3007
        60        2.0000           -0.4842339             -13.1767
        61        2.0000           -0.4731426             -12.8749
        62        2.0000           -0.4667823             -12.7018
        63        2.0000           -0.4635524             -12.6139
        64        2.0000           -0.4631617             -12.6033
        65        2.0000           -0.4539783             -12.3534
        66        2.0000           -0.4504913             -12.2585
        67        2.0000           -0.4209043             -11.4534 (HOMO)
        68                         -0.3245156              -8.8305 (LUMO)
        69                         -0.3123193              -8.4986
        70                         -0.3062530              -8.3336
        71                         -0.2760649              -7.5121
        72                         -0.2583640              -7.0304
        73                         -0.2001535              -5.4465
        74                         -0.1695304              -4.6132
        75                         -0.1618526              -4.4042
        76                         -0.1535353              -4.1779
        77                         -0.1442065              -3.9241
        78                         -0.1432409              -3.8978
       ...                                ...                  ...
       134                          0.8499698              23.1289
      -------------------------------------------------------------
                  HL-Gap            0.0963887 Eh            2.6229 eV

Wiberg/Mayer (AO) data.
largest (>0.10) Wiberg bond orders for each atom

     #   Z sym  total        # sym  WBO       # sym  WBO       # sym  WBO
 ---------------------------------------------------------------------------
     1   6 C    3.879 --    27 H    0.986    26 H    0.980    28 H    0.980
                             2 O    0.906
     2   8 O    2.170 --     3 C    1.073     1 C    0.906     4 O    0.120
     3   6 C    3.865 --     4 O    1.614     5 C    1.083     2 O    1.073
     4   8 O    1.891 --     3 C    1.614     2 O    0.120
     5   6 C    3.883 --     6 C    1.355    25 N    1.105     3 C    1.083
                             7 O    0.140
     6   6 C    3.865 --     7 O    1.695     5 C    1.355    11 N    0.646
     7   8 O    2.042 --     6 C    1.695     5 C    0.140
     8   6 C    3.830 --    10 O    1.813     9 C    1.025    11 N    0.895
     9   6 C    3.983 --     8 C    1.025    31 H    0.972    30 H    0.968
                            29 H    0.933
    10   8 O    2.043 --     8 C    1.813
    11   7 N    3.546 --     8 C    0.895    12 C    0.879    32 H    0.867
                             6 C    0.646
    12   6 C    3.892 --    25 N    1.771    13 C    0.991    11 N    0.879
    13   6 C    3.939 --    12 C    0.991    15 C    0.979    14 C    0.973
                            16 N    0.934
    14   6 C    3.985 --    34 H    0.985    33 H    0.983    35 H    0.977
                            13 C    0.973
    15   6 C    3.986 --    36 H    0.984    37 H    0.982    13 C    0.979
                            38 H    0.976
    16   7 N    3.348 --    17 C    1.255    13 C    0.934    39 H    0.880
                            18 O    0.178
    17   6 C    3.917 --    18 O    1.591    16 N    1.255    19 C    0.989
    18   8 O    1.911 --    17 C    1.591    16 N    0.178
    19   6 C    3.875 --    20 N    1.611    24 O    1.064    17 C    0.989
    20   7 N    3.016 --    19 C    1.611    21 N    1.200
    21   7 N    2.981 --    22 C    1.605    20 N    1.200
    22   6 C    3.871 --    21 N    1.605    24 O    1.083    23 C    1.031
    23   6 C    3.986 --    22 C    1.031    40 H    0.983    42 H    0.964
                            41 H    0.963
    24   8 O    2.330 --    22 C    1.083    19 C    1.064
    25   7 N    3.077 --    12 C    1.771     5 C    1.105
    26   1 H    1.009 --     1 C    0.980
    27   1 H    1.012 --     1 C    0.986
    28   1 H    1.009 --     1 C    0.980
    29   1 H    0.990 --     9 C    0.933
    30   1 H    0.993 --     9 C    0.968
    31   1 H    0.998 --     9 C    0.972
    32   1 H    0.920 --    11 N    0.867
    33   1 H    0.998 --    14 C    0.983
    34   1 H    1.001 --    14 C    0.985
    35   1 H    1.006 --    14 C    0.977
    36   1 H    1.002 --    15 C    0.984
    37   1 H    1.002 --    15 C    0.982
    38   1 H    1.006 --    15 C    0.976
    39   1 H    0.965 --    16 N    0.880
    40   1 H    0.998 --    23 C    0.983
    41   1 H    0.997 --    23 C    0.963
    42   1 H    0.996 --    23 C    0.964
 ---------------------------------------------------------------------------

           -------------------------------------------------
          | TOTAL ENERGY              -82.978700486124 Eh   |
          | GRADIENT NORM               0.000556665057 Eh/α |
          | HOMO-LUMO GAP               2.622869591431 eV   |
           -------------------------------------------------

 * finished run on 2023/06/21 at 17:53:41.764
