   * xtb version 6.5.1 (579679a) compiled by 'ehlert@majestix' on 2022-07-11
          program call               : /lustre/hpc/kemi/ree/PhD/git/ReactivityQM/dep/xtb-6.5.1/bin/xtb --gfn 1 /lustre/hpc/kemi/ree/PhD/git/ReactivityQM/calculations/RaltegravirCLI/reac02prodN13/conf15/RaltegravirCLI_reac02prodN13_conf15_gfn1.xyz --opt --vfukui --chrg 1 --uhf 0 --alpb DMSO

   ID    Z sym.   atoms
    1    6 C      1, 3-6, 9, 10, 13-17, 19-21, 23, 24
    2    7 N      2, 7, 8, 12
    3    8 O      11, 22, 25
    4    9 F      18
    5    1 H      26-47

      * Solvation model:               ALPB
        Solvent                        DMSO
        Solvent mass                       7.8130E+01 g/mol
          :  Hamiltonian                  GFN1-xTB          :
 * total energy  :   -79.4003739 Eh     change       -0.5172751E-11 Eh
 * total energy  :   -79.4197543 Eh     change       -0.1938047E-01 Eh
 * total energy  :   -79.4298009 Eh     change       -0.1004654E-01 Eh
 * total energy  :   -79.4327737 Eh     change       -0.2972797E-02 Eh
 * total energy  :   -79.4350247 Eh     change       -0.2250992E-02 Eh
 * total energy  :   -79.4361156 Eh     change       -0.1090888E-02 Eh
 * total energy  :   -79.4367827 Eh     change       -0.6671458E-03 Eh
 * total energy  :   -79.4372201 Eh     change       -0.4373653E-03 Eh
 * total energy  :   -79.4374851 Eh     change       -0.2650505E-03 Eh
 * total energy  :   -79.4376719 Eh     change       -0.1868119E-03 Eh
 * total energy  :   -79.4905657 Eh     change       -0.2328373E-03 Eh
 * total energy  :   -79.4906012 Eh     change       -0.3542733E-04 Eh
 * total energy  :   -79.4906039 Eh     change       -0.2754351E-05 Eh
 * total energy  :   -79.4906796 Eh     change       -0.7572103E-04 Eh
 * total energy  :   -79.4906896 Eh     change       -0.9988222E-05 Eh
 * total energy  :   -79.4906981 Eh     change       -0.8429191E-05 Eh
 * total energy  :   -79.4907076 Eh     change       -0.9569472E-05 Eh
 * total energy  :   -79.4907134 Eh     change       -0.5809971E-05 Eh
 * total energy  :   -79.4907179 Eh     change       -0.4447323E-05 Eh
   *** GEOMETRY OPTIMIZATION CONVERGED AFTER 66 ITERATIONS ***

 final structure:
================
47
 xtb: 6.5.1 (579679a)
C           -4.11967731239345        0.89098992012577       -1.95019668107516
N           -2.76466664647901        0.59510395631034       -1.47517761083297
C           -2.41019484662142       -0.44595671672534       -0.72926688506448
C           -3.37507261445757       -1.34760337481141        0.00483128574571
C           -2.62623942675855       -2.53498580373259        0.62371995823310
C           -4.01715831811347       -0.49393251792474        1.11396859664153
N           -4.41475157752461       -1.80633613837777       -0.90186306069253
N           -1.10455038831333       -0.77199123900947       -0.63405256596814
C           -0.13165704753055        0.02557304656898       -0.92282009995851
C            1.24114570267905       -0.61994263473758       -0.95437550135800
O            1.33586992036188       -1.83411174348288       -0.90661450775064
N            2.27945593341729        0.22078050348947       -1.02056069373308
C            3.65046494488515       -0.27915297657918       -1.05252222519378
C            4.30536473237624       -0.15327095046179        0.30643918666725
C            5.47592648350740        0.58519372267885        0.45512001688563
C            6.09240459386846        0.68684941152048        1.69498087031293
C            5.51043917836479        0.04244061610918        2.77138222254451
F            6.09830537704867        0.13586256456828        3.97249238101907
C            4.34361945586708       -0.69348774115950        2.65867955062447
C            3.74348022539239       -0.78938636540134        1.41205001554739
C           -0.45203826454323        1.46650164503051       -1.14976505360506
O            0.53273436494979        2.10989504721186       -1.89129418316974
C           -1.80158147432403        1.57860670579685       -1.84833584197879
C           -0.65294219425044        2.16319220380184        0.22766723429739
O           -2.10287014948249        2.49638286952686       -2.55190997693837
H           -4.05512447466800        1.14585845339104       -3.00746992023930
H           -4.49929708011985        1.74662836381376       -1.39378591297086
H           -4.74969447412383        0.01845392188188       -1.79857325055746
H           -1.87871553632809       -2.18118340130523        1.33191993307785
H           -2.13202108692469       -3.11443558738536       -0.15437706741580
H           -3.33925246737061       -3.17184027275008        1.14335098584048
H           -4.67540951107145       -1.12759797322496        1.70565131543664
H           -3.24815453825975       -0.07756688024466        1.76253446937589
H           -4.59949038468040        0.31763037486756        0.68359422748365
H           -4.04721597223699       -2.51290560497642       -1.52403370624481
H           -5.17219310288231       -2.20608117621157       -0.36685353065839
H            2.14496456300649        1.21779223511049       -1.05682318032251
H            4.19979360320728        0.29883921926426       -1.79900537889111
H            3.61370297334148       -1.32877256438998       -1.36219573680579
H            5.91234707145400        1.08524642083759       -0.40123458856526
H            7.00275890948771        1.25773520370293        1.82382947565553
H            3.91672425416467       -1.17869028575991        3.52675779081608
H            2.82971617240086       -1.36010663202901        1.29817863113334
H            0.21066039967476        2.95519501771965       -2.23877674834759
H           -1.38959320830986        1.62824261236007        0.82186044015944
H            0.30449883958351        2.17495147339914        0.74361826179041
H           -0.98481660127289        3.18539307159530        0.05716605904679

          :  Hamiltonian                  GFN1-xTB          :
         :: total energy             -79.490717887125 Eh    ::
         :: gradient norm              0.000570344376 Eh/a0 ::
         :: HOMO-LUMO gap              0.698915185110 eV    ::
         :: SCC energy               -80.382970414095 Eh    ::
         :: -> Gsolv                  -0.108261597234 Eh    ::
         :: repulsion energy           0.923309401578 Eh    ::

    * Orbital Energies and Occupations

         #    Occupation            Energy/Eh            Energy/eV
      -------------------------------------------------------------
         1        2.0000           -0.8867962             -24.1310
       ...           ...                  ...                  ...
        55        2.0000           -0.5237260             -14.2513
        56        2.0000           -0.5204652             -14.1626
        57        2.0000           -0.5168944             -14.0654
        58        2.0000           -0.5117065             -13.9242
        59        2.0000           -0.5110610             -13.9067
        60        2.0000           -0.5036451             -13.7049
        61        2.0000           -0.4975674             -13.5395
        62        2.0000           -0.4810857             -13.0910
        63        2.0000           -0.4780534             -13.0085
        64        2.0000           -0.4672851             -12.7155
        65        2.0000           -0.4590833             -12.4923
        66        2.0000           -0.4449110             -12.1066
        67        2.0000           -0.4419560             -12.0262 (HOMO)
        68        0.0000           -0.4162713             -11.3273 (LUMO)
        69                         -0.3427943              -9.3279
        70                         -0.3012207              -8.1966
        71                         -0.2810076              -7.6466
        72                         -0.2753626              -7.4930
        73                         -0.2421772              -6.5900
        74                         -0.1632429              -4.4421
        75                         -0.1582648              -4.3066
        76                         -0.1538489              -4.1864
        77                         -0.1430377              -3.8923
        78                         -0.1354185              -3.6849
       ...                                ...                  ...
       144                          0.6875718              18.7098
      -------------------------------------------------------------
                  HL-Gap            0.0256847 Eh            0.6989 eV

Wiberg/Mayer (AO) data.
largest (>0.10) Wiberg bond orders for each atom

     #   Z sym  total        # sym  WBO       # sym  WBO       # sym  WBO
 ---------------------------------------------------------------------------
     1   6 C    3.880 --    26 H    0.969    27 H    0.965    28 H    0.959
                             2 N    0.901
     2   7 N    3.555 --     3 C    1.381    23 C    1.004     1 C    0.901
     3   6 C    3.870 --     2 N    1.381     8 N    1.251     4 C    0.989
     4   6 C    3.954 --     3 C    0.989     5 C    0.987     7 N    0.984
                             6 C    0.951
     5   6 C    3.988 --     4 C    0.987    31 H    0.983    30 H    0.982
                            29 H    0.981
     6   6 C    3.985 --    33 H    0.984    34 H    0.983    32 H    0.975
                             4 C    0.951
     7   7 N    3.007 --     4 C    0.984    35 H    0.929    36 H    0.924
     8   7 N    3.130 --     9 C    1.633     3 C    1.251
     9   6 C    3.898 --     8 N    1.633    21 C    1.002    10 C    0.959
    10   6 C    3.922 --    11 O    1.586    12 N    1.299     9 C    0.959
    11   8 O    1.911 --    10 C    1.586    12 N    0.204
    12   7 N    3.421 --    10 C    1.299    13 C    0.933    37 H    0.878
                            11 O    0.204
    13   6 C    3.929 --    14 C    0.988    38 H    0.970    39 H    0.963
                            12 N    0.933
    14   6 C    3.983 --    15 C    1.422    20 C    1.413    13 C    0.988
    15   6 C    3.993 --    16 C    1.440    14 C    1.422    40 H    0.970
                            19 C    0.109
    16   6 C    3.990 --    15 C    1.440    17 C    1.402    41 H    0.968
                            20 C    0.111
    17   6 C    3.862 --    16 C    1.402    19 C    1.396    18 F    0.930
    18   9 F    1.060 --    17 C    0.930
    19   6 C    3.991 --    20 C    1.449    17 C    1.396    42 H    0.969
                            15 C    0.109
    20   6 C    3.993 --    19 C    1.449    14 C    1.413    43 H    0.971
                            16 C    0.111
    21   6 C    3.934 --     9 C    1.002    22 O    0.988    23 C    0.931
                            24 C    0.894
    22   8 O    1.928 --    21 C    0.988    44 H    0.812
    23   6 C    3.859 --    25 O    1.778     2 N    1.004    21 C    0.931
    24   6 C    3.970 --    45 H    0.984    47 H    0.977    46 H    0.976
                            21 C    0.894
    25   8 O    2.040 --    23 C    1.778
    26   1 H    0.997 --     1 C    0.969
    27   1 H    0.994 --     1 C    0.965
    28   1 H    1.020 --     1 C    0.959
    29   1 H    1.003 --     5 C    0.981
    30   1 H    1.004 --     5 C    0.982
    31   1 H    0.999 --     5 C    0.983
    32   1 H    0.994 --     6 C    0.975
    33   1 H    0.999 --     6 C    0.984
    34   1 H    0.998 --     6 C    0.983
    35   1 H    0.944 --     7 N    0.929
    36   1 H    0.940 --     7 N    0.924
    37   1 H    0.937 --    12 N    0.878
    38   1 H    0.998 --    13 C    0.970
    39   1 H    1.006 --    13 C    0.963
    40   1 H    0.998 --    15 C    0.970
    41   1 H    0.997 --    16 C    0.968
    42   1 H    0.997 --    19 C    0.969
    43   1 H    1.002 --    20 C    0.971
    44   1 H    0.834 --    22 O    0.812
    45   1 H    0.997 --    24 C    0.984
    46   1 H    0.996 --    24 C    0.976
    47   1 H    0.993 --    24 C    0.977
 ---------------------------------------------------------------------------

           -------------------------------------------------
          | TOTAL ENERGY              -79.490717887125 Eh   |
          | GRADIENT NORM               0.000570344376 Eh/α |
          | HOMO-LUMO GAP               0.698915185110 eV   |
           -------------------------------------------------

 * finished run on 2023/06/20 at 15:35:11.753
