                         Program Version 5.0.1 -  RELEASE  -
|  1> # ORCA input file
|  2> ! SP r2SCAN-3c CPCM
|  3>
|  4> %maxcore 1875.0
|  5> %pal nprocs 4 end
|  6> %cpcm smd true SMDsolvent "DMSO" end
|  7>
|  8> *xyz 0 1
|  9> C      -5.564163   -1.820838    0.780769
| 10> O      -4.299677   -1.184234    0.565723
| 11> C      -4.160094   -0.514052   -0.568841
| 12> O      -5.041869   -0.431795   -1.406449
| 13> C      -2.837945    0.134317   -0.727847
| 14> N      -1.929128   -0.037163    0.286130
| 15> C      -0.769237    0.515305    0.184883
| 16> C       0.215578    0.404508    1.328236
| 17> C       0.136855    1.714266    2.129618
| 18> C      -0.127754   -0.804284    2.204082
| 19> N       1.557574    0.242354    0.757751
| 20> C       2.671145    0.174830    1.522859
| 21> O       2.713191    0.345769    2.728834
| 22> C       3.891587   -0.112954    0.729546
| 23> N       5.108726   -0.217840    1.164309
| 24> N       5.892433   -0.479647    0.081502
| 25> C       5.106142   -0.518127   -0.948864
| 26> C       5.473004   -0.765596   -2.359883
| 27> O       3.825814   -0.295421   -0.607579
| 28> N      -0.418761    1.280069   -0.890133
| 29> C      -1.242141    1.530283   -1.973785
| 30> O      -0.865675    2.222865   -2.901256
| 31> C      -2.553880    0.883528   -1.844083
| 32> O      -3.405066    1.081680   -2.849960
| 33> H      -6.361855   -1.074633    0.778673
| 34> H      -5.504359   -2.311028    1.750241
| 35> H      -5.751885   -2.553899   -0.006836
| 36> H       0.463758    2.547683    1.510786
| 37> H      -0.893502    1.882985    2.438793
| 38> H       0.767586    1.656303    3.014190
| 39> H      -0.043761   -1.719715    1.620802
| 40> H      -1.150438   -0.709081    2.565308
| 41> H       0.550800   -0.854040    3.053607
| 42> H       1.630695   -0.048100   -0.203157
| 43> H       6.547202   -0.918347   -2.437319
| 44> H       5.177980    0.085700   -2.973675
| 45> H       4.949455   -1.646497   -2.731990
| 46> H       0.498301    1.698812   -0.928154
| 47> H      -4.256636    0.616032   -2.679997
| 48> **                         ****END OF INPUT****

CARTESIAN COORDINATES (ANGSTROEM)
---------------------------------
  C     -5.564163   -1.820838    0.780769
  O     -4.299677   -1.184234    0.565723
  C     -4.160094   -0.514052   -0.568841
  O     -5.041869   -0.431795   -1.406449
  C     -2.837945    0.134317   -0.727847
  N     -1.929128   -0.037163    0.286130
  C     -0.769237    0.515305    0.184883
  C      0.215578    0.404508    1.328236
  C      0.136855    1.714266    2.129618
  C     -0.127754   -0.804284    2.204082
  N      1.557574    0.242354    0.757751
  C      2.671145    0.174830    1.522859
  O      2.713191    0.345769    2.728834
  C      3.891587   -0.112954    0.729546
  N      5.108726   -0.217840    1.164309
  N      5.892433   -0.479647    0.081502
  C      5.106142   -0.518127   -0.948864
  C      5.473004   -0.765596   -2.359883
  O      3.825814   -0.295421   -0.607579
  N     -0.418761    1.280069   -0.890133
  C     -1.242141    1.530283   -1.973785
  O     -0.865675    2.222865   -2.901256
  C     -2.553880    0.883528   -1.844083
  O     -3.405066    1.081680   -2.849960
  H     -6.361855   -1.074633    0.778673
  H     -5.504359   -2.311028    1.750241
  H     -5.751885   -2.553899   -0.006836
  H      0.463758    2.547683    1.510786
  H     -0.893502    1.882985    2.438793
  H      0.767586    1.656303    3.014190
  H     -0.043761   -1.719715    1.620802
  H     -1.150438   -0.709081    2.565308
  H      0.550800   -0.854040    3.053607
  H      1.630695   -0.048100   -0.203157
  H      6.547202   -0.918347   -2.437319
  H      5.177980    0.085700   -2.973675
  H      4.949455   -1.646497   -2.731990
  H      0.498301    1.698812   -0.928154
  H     -4.256636    0.616032   -2.679997

 Total Charge           Charge          ....    0
 Multiplicity           Mult            ....    1
 Number of Electrons    NEL             ....  176
 Basis Dimension        Dim             ....  586

ORBITAL ENERGIES
----------------

  NO   OCC          E(Eh)            E(eV)
   0   2.0000     -19.067058      -518.8410
   1   2.0000     -19.011742      -517.3358
   2   2.0000     -18.999071      -516.9910
   3   2.0000     -18.958276      -515.8809
   4   2.0000     -18.936886      -515.2989
   5   2.0000     -18.935055      -515.2491
   6   2.0000     -14.230955      -387.2440
   7   2.0000     -14.206233      -386.5712
   8   2.0000     -14.205914      -386.5626
   9   2.0000     -14.198172      -386.3519
  10   2.0000     -14.169247      -385.5648
  11   2.0000     -10.175882      -276.8998
  12   2.0000     -10.160381      -276.4780
  13   2.0000     -10.154431      -276.3161
  14   2.0000     -10.148337      -276.1503
  15   2.0000     -10.143876      -276.0289
  16   2.0000     -10.129837      -275.6469
  17   2.0000     -10.128151      -275.6010
  18   2.0000     -10.106799      -275.0200
  19   2.0000     -10.095369      -274.7090
  20   2.0000     -10.080903      -274.3153
  21   2.0000     -10.045883      -273.3624
  22   2.0000     -10.023568      -272.7552
  23   2.0000     -10.019001      -272.6309
  24   2.0000      -1.156411       -31.4675
  25   2.0000      -1.091155       -29.6918
  26   2.0000      -1.055243       -28.7146
  27   2.0000      -1.027187       -27.9512
  28   2.0000      -1.023818       -27.8595
  29   2.0000      -0.999303       -27.1924
  30   2.0000      -0.977102       -26.5883
  31   2.0000      -0.972221       -26.4555
  32   2.0000      -0.916688       -24.9443
  33   2.0000      -0.884534       -24.0694
  34   2.0000      -0.832800       -22.6616
  35   2.0000      -0.791030       -21.5250
  36   2.0000      -0.747010       -20.3272
  37   2.0000      -0.715724       -19.4759
  38   2.0000      -0.714098       -19.4316
  39   2.0000      -0.671258       -18.2659
  40   2.0000      -0.665212       -18.1014
  41   2.0000      -0.657737       -17.8979
  42   2.0000      -0.645343       -17.5607
  43   2.0000      -0.603675       -16.4268
  44   2.0000      -0.589369       -16.0376
  45   2.0000      -0.568645       -15.4736
  46   2.0000      -0.557373       -15.1669
  47   2.0000      -0.552254       -15.0276
  48   2.0000      -0.545218       -14.8361
  49   2.0000      -0.529774       -14.4159
  50   2.0000      -0.501358       -13.6426
  51   2.0000      -0.495866       -13.4932
  52   2.0000      -0.484015       -13.1707
  53   2.0000      -0.466120       -12.6838
  54   2.0000      -0.458848       -12.4859
  55   2.0000      -0.456505       -12.4221
  56   2.0000      -0.449818       -12.2402
  57   2.0000      -0.438133       -11.9222
  58   2.0000      -0.424946       -11.5634
  59   2.0000      -0.420445       -11.4409
  60   2.0000      -0.414186       -11.2706
  61   2.0000      -0.410348       -11.1661
  62   2.0000      -0.400438       -10.8965
  63   2.0000      -0.398017       -10.8306
  64   2.0000      -0.391445       -10.6518
  65   2.0000      -0.387210       -10.5365
  66   2.0000      -0.382441       -10.4068
  67   2.0000      -0.381767       -10.3884
  68   2.0000      -0.370177       -10.0730
  69   2.0000      -0.365361        -9.9420
  70   2.0000      -0.355303        -9.6683
  71   2.0000      -0.352000        -9.5784
  72   2.0000      -0.345525        -9.4022
  73   2.0000      -0.345068        -9.3898
  74   2.0000      -0.339052        -9.2261
  75   2.0000      -0.329935        -8.9780
  76   2.0000      -0.323862        -8.8127
  77   2.0000      -0.315306        -8.5799
  78   2.0000      -0.291188        -7.9236
  79   2.0000      -0.282937        -7.6991
  80   2.0000      -0.280457        -7.6316
  81   2.0000      -0.268359        -7.3024
  82   2.0000      -0.263510        -7.1705
  83   2.0000      -0.252295        -6.8653
  84   2.0000      -0.249804        -6.7975
  85   2.0000      -0.247309        -6.7296
  86   2.0000      -0.244981        -6.6663
  87   2.0000      -0.215103        -5.8532
  88   0.0000      -0.098564        -2.6821
  89   0.0000      -0.088590        -2.4107
  90   0.0000      -0.044151        -1.2014
  91   0.0000      -0.021133        -0.5750
  92   0.0000       0.005494         0.1495

MULLIKEN ATOMIC CHARGES
-----------------------
   0 C :   -0.310747
   1 O :   -0.184970
   2 C :    0.224639
   3 O :   -0.479717
   4 C :    0.130959
   5 N :   -0.139872
   6 C :    0.334833
   7 C :   -0.018523
   8 C :   -0.600129
   9 C :   -0.629297
  10 N :   -0.113030
  11 C :   -0.106570
  12 O :   -0.437056
  13 C :    0.423309
  14 N :   -0.177750
  15 N :   -0.276730
  16 C :    0.394704
  17 C :   -0.635233
  18 O :   -0.056918
  19 N :   -0.068570
  20 C :    0.076039
  21 O :   -0.391874
  22 C :    0.058016
  23 O :   -0.355638
  24 H :    0.180031
  25 H :    0.180383
  26 H :    0.180104
  27 H :    0.192533
  28 H :    0.193141
  29 H :    0.202512
  30 H :    0.192411
  31 H :    0.189424
  32 H :    0.195650
  33 H :    0.324807
  34 H :    0.205476
  35 H :    0.201323
  36 H :    0.201676
  37 H :    0.326548
  38 H :    0.374106
Sum of atomic charges:    0.0000000

LOEWDIN ATOMIC CHARGES
----------------------
   0 C :   -0.031306
   1 O :   -0.556567
   2 C :    0.409170
   3 O :   -0.462597
   4 C :    0.196538
   5 N :   -0.555181
   6 C :    0.357247
   7 C :    0.109652
   8 C :   -0.338450
   9 C :   -0.342729
  10 N :   -0.574926
  11 C :    0.382968
  12 O :   -0.454543
  13 C :    0.414373
  14 N :   -0.333514
  15 N :   -0.359465
  16 C :    0.379520
  17 C :   -0.317185
  18 O :   -0.392386
  19 N :   -0.442734
  20 C :    0.373862
  21 O :   -0.434206
  22 C :    0.284922
  23 O :   -0.437865
  24 H :    0.184727
  25 H :    0.188433
  26 H :    0.184590
  27 H :    0.174723
  28 H :    0.174858
  29 H :    0.184899
  30 H :    0.174480
  31 H :    0.179454
  32 H :    0.176848
  33 H :    0.300932
  34 H :    0.191489
  35 H :    0.192133
  36 H :    0.192155
  37 H :    0.310507
  38 H :    0.315174

  Mayer bond orders larger than 0.100000
B(  0-C ,  1-O ) :   0.8242 B(  0-C , 24-H ) :   0.9544 B(  0-C , 25-H ) :   0.9607
B(  0-C , 26-H ) :   0.9541 B(  1-O ,  2-C ) :   1.2007 B(  2-C ,  3-O ) :   1.7233
B(  2-C ,  4-C ) :   1.0645 B(  4-C ,  5-N ) :   1.0094 B(  4-C , 22-C ) :   1.3140
B(  5-N ,  6-C ) :   1.7088 B(  6-C ,  7-C ) :   0.8739 B(  6-C , 10-N ) :  -0.1512
B(  6-C , 19-N ) :   1.0869 B(  6-C , 22-C ) :   0.1058 B(  7-C ,  8-C ) :   0.8893
B(  7-C ,  9-C ) :   0.8814 B(  7-C , 10-N ) :   0.8944 B(  8-C , 27-H ) :   0.9627
B(  8-C , 28-H ) :   0.9603 B(  8-C , 29-H ) :   0.9559 B(  9-C , 30-H ) :   0.9708
B(  9-C , 31-H ) :   0.9569 B(  9-C , 32-H ) :   0.9645 B( 10-N , 11-C ) :   1.1556
B( 10-N , 33-H ) :   0.8724 B( 11-C , 12-O ) :   1.9156 B( 11-C , 13-C ) :   0.8421
B( 13-C , 14-N ) :   1.7056 B( 13-C , 16-C ) :   0.1054 B( 13-C , 18-O ) :   1.0753
B( 14-N , 15-N ) :   1.2731 B( 15-N , 16-C ) :   1.6296 B( 16-C , 17-C ) :   0.8307
B( 16-C , 18-O ) :   1.0688 B( 17-C , 34-H ) :   0.9892 B( 17-C , 35-H ) :   0.9416
B( 17-C , 36-H ) :   0.9415 B( 19-N , 20-C ) :   1.0195 B( 19-N , 37-H ) :   0.8790
B( 20-C , 21-O ) :   2.0628 B( 20-C , 22-C ) :   0.9830 B( 22-C , 23-O ) :   1.1640
B( 23-O , 38-H ) :   0.7694

Dispersion correction           -0.016965335
FINAL SINGLE POINT ENERGY     -1229.374475287409

DIPOLE MOMENT
-------------
                                X             Y             Z
Electronic contribution:      3.03977       3.80500      -7.18203
Nuclear contribution   :     -4.44994      -5.01825       6.16906
                        -----------------------------------------
Total Dipole Moment    :     -1.41018      -1.21325      -1.01297
                        -----------------------------------------
Magnitude (a.u.)       :      2.11818
Magnitude (Debye)      :      5.38398

Rotational constants in cm-1:     0.014453     0.003779     0.003332
Rotational constants in MHz :   433.287600   113.302441    99.876932

                             ****ORCA TERMINATED NORMALLY****
TOTAL RUN TIME: 0 days 0 hours 1 minutes 57 seconds 721 msec
