   * xtb version 6.5.1 (579679a) compiled by 'ehlert@majestix' on 2022-07-11
          program call               : /lustre/hpc/kemi/ree/PhD/git/ReactivityQM/dep/xtb-6.5.1/bin/xtb --gfn 1 /lustre/hpc/kemi/ree/PhD/git/ReactivityQM/calculations/R02/reac01/conf07/R02_reac01_conf07_gfn1.xyz --opt --vfukui --chrg 0 --uhf 0 --alpb DMSO

   ID    Z sym.   atoms
    1    6 C      1, 3, 5, 7-10, 12, 14, 17, 18, 21, 23
    2    8 O      2, 4, 13, 19, 22, 24
    3    7 N      6, 11, 15, 16, 20
    4    1 H      25-39

      * Solvation model:               ALPB
        Solvent                        DMSO
        Solvent mass                       7.8130E+01 g/mol
          :  Hamiltonian                  GFN1-xTB          :
 * total energy  :   -79.8179114 Eh     change       -0.1315925E-10 Eh
 * total energy  :   -79.8273260 Eh     change       -0.9414589E-02 Eh
 * total energy  :   -79.8306992 Eh     change       -0.3373191E-02 Eh
 * total energy  :   -79.8313600 Eh     change       -0.6608481E-03 Eh
 * total energy  :   -79.8319870 Eh     change       -0.6269451E-03 Eh
 * total energy  :   -79.8323557 Eh     change       -0.3686869E-03 Eh
 * total energy  :   -79.8326717 Eh     change       -0.3160273E-03 Eh
 * total energy  :   -79.8328738 Eh     change       -0.2021224E-03 Eh
 * total energy  :   -79.8329587 Eh     change       -0.8484482E-04 Eh
 * total energy  :   -79.8330044 Eh     change       -0.4570632E-04 Eh
 * total energy  :   -79.8336191 Eh     change       -0.1248497E-04 Eh
 * total energy  :   -79.8336291 Eh     change       -0.1009040E-04 Eh
 * total energy  :   -79.8336372 Eh     change       -0.8022426E-05 Eh
 * total energy  :   -79.8336450 Eh     change       -0.7877069E-05 Eh
 * total energy  :   -79.8336546 Eh     change       -0.9573489E-05 Eh
 * total energy  :   -79.8336647 Eh     change       -0.1004923E-04 Eh
 * total energy  :   -79.8336713 Eh     change       -0.6607002E-05 Eh
 * total energy  :   -79.8336773 Eh     change       -0.6006004E-05 Eh
 * total energy  :   -79.8336811 Eh     change       -0.3862346E-05 Eh
   *** GEOMETRY OPTIMIZATION CONVERGED AFTER 35 ITERATIONS ***

 final structure:
================
39
 xtb: 6.5.1 (579679a)
C           -5.56416253061712       -1.82083763215528        0.78076927208944
O           -4.29967662162510       -1.18423357534239        0.56572272941073
C           -4.16009355144218       -0.51405214357600       -0.56884141863424
O           -5.04186882520183       -0.43179485941112       -1.40644909578195
C           -2.83794534140358        0.13431704030285       -0.72784729067715
N           -1.92912797240536       -0.03716273329651        0.28612974763996
C           -0.76923726048907        0.51530522879006        0.18488332003480
C            0.21557803442270        0.40450848769210        1.32823630859986
C            0.13685464181141        1.71426629815132        2.12961821027577
C           -0.12775420977530       -0.80428386569039        2.20408231265835
N            1.55757419539029        0.24235396993282        0.75775110619560
C            2.67114474748736        0.17482965002203        1.52285900716184
O            2.71319133470175        0.34576883275854        2.72883382243216
C            3.89158702455172       -0.11295357143373        0.72954625319359
N            5.10872555809325       -0.21784036736100        1.16430932137420
N            5.89243294744229       -0.47964654839700        0.08150200064671
C            5.10614228329701       -0.51812714622204       -0.94886356702646
C            5.47300377258620       -0.76559606629632       -2.35988327570869
O            3.82581418289153       -0.29542080667183       -0.60757860081144
N           -0.41876061719843        1.28006890691836       -0.89013339223452
C           -1.24214069388842        1.53028305866422       -1.97378500200096
O           -0.86567481728801        2.22286461915029       -2.90125591870495
C           -2.55388006104285        0.88352833671496       -1.84408324024611
O           -3.40506623482285        1.08167997915119       -2.84995951243028
H           -6.36185490107328       -1.07463312579337        0.77867306693228
H           -5.50435920647620       -2.31102818746378        1.75024074026008
H           -5.75188502231372       -2.55389894339315       -0.00683627607582
H            0.46375821787846        2.54768329211446        1.51078625452137
H           -0.89350188954603        1.88298533086225        2.43879330380209
H            0.76758645262500        1.65630292193768        3.01419017109573
H           -0.04376057546734       -1.71971503955936        1.62080238529477
H           -1.15043774552885       -0.70908123049961        2.56530787416195
H            0.55079982665922       -0.85404004320762        3.05360653031591
H            1.63069517637257       -0.04810039336838       -0.20315685467025
H            6.54720241498023       -0.91834671291620       -2.43731944405903
H            5.17798002983800        0.08570024924446       -2.97367455501590
H            4.94945455414819       -1.64649689352351       -2.73199014071720
H            0.49830084346570        1.69881180653461       -0.92815386875549
H           -4.25663616104377        0.61603187663802       -2.67999728454979

          :  Hamiltonian                  GFN1-xTB          :
         :: total energy             -79.833681140362 Eh    ::
         :: gradient norm              0.000682644697 Eh/a0 ::
         :: HOMO-LUMO gap              2.833367902987 eV    ::
         :: SCC energy               -80.579548953855 Eh    ::
         :: -> Gsolv                  -0.057817553397 Eh    ::
         :: repulsion energy           0.769174855475 Eh    ::

    * Orbital Energies and Occupations

         #    Occupation            Energy/Eh            Energy/eV
      -------------------------------------------------------------
         1        2.0000           -0.8661693             -23.5697
       ...           ...                  ...                  ...
        52        2.0000           -0.5057501             -13.7622
        53        2.0000           -0.5023565             -13.6698
        54        2.0000           -0.5004462             -13.6178
        55        2.0000           -0.4910771             -13.3629
        56        2.0000           -0.4882137             -13.2850
        57        2.0000           -0.4806825             -13.0800
        58        2.0000           -0.4682921             -12.7429
        59        2.0000           -0.4622143             -12.5775
        60        2.0000           -0.4600836             -12.5195
        61        2.0000           -0.4524285             -12.3112
        62        2.0000           -0.4507309             -12.2650
        63        2.0000           -0.4474565             -12.1759
        64        2.0000           -0.4309623             -11.7271 (HOMO)
        65                         -0.3268380              -8.8937 (LUMO)
        66                         -0.3123409              -8.4992
        67                         -0.2854470              -7.7674
        68                         -0.2572196              -6.9993
        69                         -0.2432892              -6.6202
        70                         -0.2000100              -5.4425
        71                         -0.1604123              -4.3650
        72                         -0.1421634              -3.8685
        73                         -0.1380574              -3.7567
        74                         -0.1277577              -3.4765
        75                         -0.1243042              -3.3825
       ...                                ...                  ...
       126                          0.7280937              19.8124
      -------------------------------------------------------------
                  HL-Gap            0.1041244 Eh            2.8334 eV

Wiberg/Mayer (AO) data.
largest (>0.10) Wiberg bond orders for each atom

     #   Z sym  total        # sym  WBO       # sym  WBO       # sym  WBO
 ---------------------------------------------------------------------------
     1   6 C    3.866 --    26 H    0.986    25 H    0.979    27 H    0.979
                             2 O    0.892
     2   8 O    2.217 --     3 C    1.136     1 C    0.892     4 O    0.130
     3   6 C    3.849 --     4 O    1.606     2 O    1.136     5 C    1.020
     4   8 O    1.944 --     3 C    1.606     2 O    0.130
     5   6 C    3.963 --    23 C    1.487     6 N    1.174     3 C    1.020
     6   7 N    3.027 --     7 C    1.592     5 C    1.174
     7   6 C    3.931 --     6 N    1.592    20 N    1.168     8 C    0.982
     8   6 C    3.934 --    10 C    0.990     7 C    0.982     9 C    0.974
                            11 N    0.924
     9   6 C    3.987 --    29 H    0.985    28 H    0.985    30 H    0.977
                             8 C    0.974
    10   6 C    3.988 --     8 C    0.990    31 H    0.985    32 H    0.983
                            33 H    0.982
    11   7 N    3.335 --    12 C    1.245     8 C    0.924    34 H    0.894
                            13 O    0.173
    12   6 C    3.915 --    13 O    1.593    11 N    1.245    14 C    0.994
    13   8 O    1.909 --    12 C    1.593    11 N    0.173
    14   6 C    3.872 --    15 N    1.622    19 O    1.047    12 C    0.994
    15   7 N    3.000 --    14 C    1.622    16 N    1.199
    16   7 N    2.982 --    17 C    1.610    15 N    1.199
    17   6 C    3.868 --    16 N    1.610    19 O    1.072    18 C    1.032
    18   6 C    3.986 --    17 C    1.032    35 H    0.982    37 H    0.963
                            36 H    0.963
    19   8 O    2.316 --    17 C    1.072    14 C    1.047
    20   7 N    3.459 --     7 C    1.168    21 C    1.117    38 H    0.883
                            22 O    0.135
    21   6 C    3.907 --    22 O    1.606    20 N    1.117    23 C    1.053
    22   8 O    1.905 --    21 C    1.606    20 N    0.135
    23   6 C    3.921 --     5 C    1.487    24 O    1.129    21 C    1.053
    24   8 O    2.096 --    23 C    1.129    39 H    0.776
    25   1 H    1.006 --     1 C    0.979
    26   1 H    1.010 --     1 C    0.986
    27   1 H    1.006 --     1 C    0.979
    28   1 H    1.001 --     9 C    0.985
    29   1 H    1.002 --     9 C    0.985
    30   1 H    1.010 --     9 C    0.977
    31   1 H    1.003 --    10 C    0.985
    32   1 H    1.011 --    10 C    0.983
    33   1 H    1.007 --    10 C    0.982
    34   1 H    0.937 --    11 N    0.894
    35   1 H    0.998 --    18 C    0.982
    36   1 H    0.996 --    18 C    0.963
    37   1 H    0.997 --    18 C    0.963
    38   1 H    0.928 --    20 N    0.883
    39   1 H    0.851 --    24 O    0.776
 ---------------------------------------------------------------------------

           -------------------------------------------------
          | TOTAL ENERGY              -79.833681140362 Eh   |
          | GRADIENT NORM               0.000682644697 Eh/α |
          | HOMO-LUMO GAP               2.833367902987 eV   |
           -------------------------------------------------

 * finished run on 2023/06/20 at 14:52:07.627
